INSANE! Membrane UpperLeaflet>POPS:POPC=85.0:85.0 LowerLeaflet>PC_L:PS_L=85.0:85.0 in water
44752
    1POPC   NC3    1   2.337   4.441   8.283  0.5723 -0.2649 -0.1147
    1POPC   PO4    2   2.508   4.940   8.496  0.2231  0.4161  0.1973
    1POPC   GL1    3   2.439   4.835   8.047  0.1405  0.1738  0.0820
    1POPC   G1P    4   2.418   4.899   7.924 -0.2079  0.1936  0.1472
    1POPC   G1M    5   2.552   4.785   7.982  0.2002 -0.5206  0.6549
    1POPC   GL2    6   2.293   5.107   7.988 -0.1820  0.2708 -0.6983
    1POPC   G2P    7   2.157   5.073   7.985 -0.1050 -0.1221 -0.2776
    1POPC   G2M    8   2.275   4.984   7.922 -0.3968 -0.2918  0.3081
    1POPC   C1A    9   1.934   5.114   7.823 -0.2242 -0.1127  0.0334
    1POPC   C2A   10   1.686   5.266   7.639  0.0120 -0.0881 -0.0961
    1POPC   C3A   11   1.417   5.575   7.465 -0.0381 -0.1041  0.1472
    1POPC   C4A   12   1.249   5.843   7.084 -0.1272 -0.1082  0.1899
    1POPC   C1B   13   2.358   4.720   7.605 -0.1622  0.0012 -0.0433
    1POPC   C2B   14   2.512   4.926   7.228  0.0883  0.0337 -0.2206
    1POPC   D3B   15   2.692   5.019   6.853  0.0632 -0.0708 -0.0699
    1POPC   C4B   16   2.452   5.285   6.562  0.2097 -0.0919  0.3260
    1POPC   C5B   17   2.417   5.769   6.627 -0.1689  0.1536 -0.0345
    2POPC   NC3   18   8.623  10.912   8.336 -0.2016  0.1836  0.3475
    2POPC   PO4   19   9.081  10.573   8.512  0.1977 -0.1992 -0.1740
    2POPC   GL1   20   9.377  10.430   8.165 -0.0883  0.2409  0.2498
    2POPC   G1P   21   9.419  10.563   8.176  0.2229  0.2148 -0.3745
    2POPC   G1M   22   9.270  10.519   8.160 -0.0394  0.2978  0.1934
    2POPC   GL2   23   9.319  10.156   7.963 -0.1227 -0.1491  0.1077
    2POPC   G2P   24   9.232  10.257   7.920  0.0031  0.1697  0.5647
    2POPC   G2M   25   9.225  10.256   7.935  0.1070  0.0399 -0.0113
    2POPC   C1A   26   9.193  10.012   7.450  0.1015  0.0248  0.0411
    2POPC   C2A   27   9.425  10.147   7.005 -0.1222 -0.1610 -0.0963
    2POPC   C3A   28   9.595  10.232   6.480  0.1814 -0.1927 -0.2004
    2POPC   C4A   29   9.674  10.175   6.019 -0.2144 -0.3682 -0.0184
    2POPC   C1B   30   9.623  10.432   7.720 -0.0098 -0.1191  0.3953
    2POPC   C2B   31   9.958  10.577   7.447 -0.0985  0.1261 -0.1389
    2POPC   D3B   32  10.369  10.457   7.275 -0.4055  0.2803  0.1011
    2POPC   C4B   33  10.357  10.162   7.003  0.1968  0.1586 -0.1528
    2POPC   C5B   34  10.436   9.776   7.154  0.1032 -0.3666 -0.0789
    3POPC   NC3   35  11.709   0.445   8.536  0.4385 -0.0927 -0.3535
    3POPC   PO4   36  11.755   0.913   8.436 -0.3214  0.2278  0.0065
    3POPC   GL1   37  11.730   1.322   8.088 -0.0054  0.1240  0.1693
    3POPC   G1P   38  11.655   1.335   7.971  0.1012 -0.0533  0.0790
    3POPC   G1M   39  11.601   1.269   8.090 -0.0404  0.2113  0.3050
    3POPC   GL2   40  11.884   1.552   8.235 -0.3768  0.1890 -0.1183
    3POPC   G2P   41  11.918   1.627   8.122 -0.1794 -0.2658 -0.3780
    3POPC   G2M   42  11.874   1.688   8.206  0.3112  0.2366 -0.2269
    3POPC   C1A   43  12.056   1.699   7.812 -0.1766 -0.0068  0.1957
    3POPC   C2A   44   0.299   1.817   7.536 -0.1846  0.1249  0.0262
    3POPC   C3A   45   0.553   2.199   7.427 -0.2968 -0.1912 -0.2958
    3POPC   C4A   46   0.535   2.504   7.154 -0.0197  0.0631  0.1422
    3POPC   C1B   47  11.554   1.651   7.817  0.0803 -0.0015  0.4713
    3POPC   C2B   48  11.693   1.789   7.443 -0.3679  0.2799  0.1033
    3POPC   D3B   49  11.965   1.712   7.160  0.2228  0.1560 -0.0799
    3POPC   C4B   50  11.947   1.338   6.964 -0.1863 -0.1169  0.1155
    3POPC   C5B   51  11.858   1.045   6.625 -0.3767 -0.0481  0.0817
    4POPC   NC3   52  11.765  10.748   9.134 -0.0598 -0.0423 -0.3841
    4POPC   PO4   53  11.853  10.374   8.732  0.0180  0.3627 -0.1957
    4POPC   GL1   54  11.728  10.370   8.347 -0.0285 -0.1379  0.4804
    4POPC   G1P   55  11.666  10.244   8.348 -0.2505 -0.0315  0.4932
    4POPC   G1M   56  11.632  10.335   8.442 -0.2120 -0.1975  0.2780
    4POPC   GL2   57  11.918  10.108   8.244 -0.4255  0.7795 -0.1651
    4POPC   G2P   58  11.895  10.013   8.344  0.4222  0.4181 -0.2630
    4POPC   G2M   59  11.983   9.984   8.236 -0.9971  0.4571 -0.0854
    4POPC   C1A   60   0.126  10.276   7.922 -0.1659 -0.1360 -0.0357
    4POPC   C2A   61   0.212  10.064   7.642 -0.3515 -0.0669 -0.0349
    4POPC   C3A   62   0.038   9.831   7.355  0.0856  0.0415 -0.2492
    4POPC   C4A   63  12.015   9.365   7.233 -0.1183 -0.1060 -0.0141
    4POPC   C1B   64  11.476  10.466   8.034  0.1494 -0.1040  0.1190
    4POPC   C2B   65  11.448  10.526   7.594  0.0850  0.0663 -0.3081
    4POPC   D3B   66  11.654  10.557   7.251 -0.0496  0.0938  0.0690
    4POPC   C4B   67  11.981  10.372   7.353 -0.2194  0.1252 -0.1414
    4POPC   C5B   68   0.173  10.550   7.466  0.0663 -0.0192 -0.1286
    5POPC   NC3   69   1.475   9.878   8.683  0.0505 -0.0028  0.3890
    5POPC   PO4   70   1.160   9.412   8.534  0.0129  0.2690 -0.1417
    5POPC   GL1   71   1.365   8.993   8.247  0.1630  0.2537  0.2839
    5POPC   G1P   72   1.329   8.862   8.279 -0.9390  0.3730 -0.2284
    5POPC   G1M   73   1.377   8.991   8.107 -0.0061 -0.0753  0.2708
    5POPC   GL2   74   1.131   8.728   8.156 -0.2319  0.1086 -0.0462
    5POPC   G2P   75   1.251   8.685   8.099 -0.3658  0.0507 -0.2921
    5POPC   G2M   76   1.248   8.664   8.196 -0.2052 -0.1042 -0.4492
    5POPC   C1A   77   0.826   8.954   7.933 -0.0244  0.0333 -0.0511
    5POPC   C2A   78   0.681   9.204   7.465 -0.1057  0.1881 -0.0494
    5POPC   C3A   79   0.435   9.238   7.168 -0.1206  0.1052  0.1382
    5POPC   C4A   80   0.037   9.132   6.832 -0.1915  0.3557 -0.1446
    5POPC   C1B   81   1.420   8.968   7.774 -0.1979  0.0792 -0.2303
    5POPC   C2B   82   1.512   8.925   7.332  0.3073  0.2513  0.1187
    5POPC   D3B   83   1.346   8.738   7.026 -0.6194  0.0102  0.0014
    5POPC   C4B   84   1.491   8.297   6.835  0.0317 -0.0622  0.1982
    5POPC   C5B   85   1.462   7.976   7.121  0.0934 -0.0821 -0.1391
    6POPC   NC3   86   3.257   5.827   9.362 -0.0949  0.1028 -0.0649
    6POPC   PO4   87   3.357   5.587   8.762  0.0900  0.0356  0.1147
    6POPC   GL1   88   3.185   5.722   8.355 -0.1617 -0.1751  0.1670
    6POPC   G1P   89   3.061   5.666   8.321 -0.1625 -0.0880  0.0199
    6POPC   G1M   90   3.119   5.604   8.390 -0.4008 -0.1257 -0.0897
    6POPC   GL2   91   3.338   5.482   8.118 -0.0747 -0.2157  0.4117
    6POPC   G2P   92   3.367   5.356   8.172  0.0225 -0.1197  0.5863
    6POPC   G2M   93   3.313   5.410   8.000 -0.1881  0.2341  0.1507
    6POPC   C1A   94   3.852   5.358   7.898 -0.2981  0.0419  0.0839
    6POPC   C2A   95   4.161   5.228   7.560  0.1350  0.1368  0.0532
    6POPC   C3A   96   3.957   5.067   7.186  0.1909  0.0598 -0.3949
    6POPC   C4A   97   3.595   5.068   6.906 -0.1350 -0.1173 -0.2532
    6POPC   C1B   98   3.026   5.658   7.840  0.0218  0.1216 -0.1190
    6POPC   C2B   99   2.863   5.853   7.412  0.0168  0.0369 -0.0679
    6POPC   D3B  100   2.706   6.098   7.046  0.0029  0.0632  0.1598
    6POPC   C4B  101   2.878   5.913   6.658 -0.0499  0.0878 -0.0391
    6POPC   C5B  102   2.865   5.539   6.471  0.0068  0.2213  0.1445
    7POPC   NC3  103   2.253   1.087   8.456  0.4339 -0.0962  0.1829
    7POPC   PO4  104   2.359   0.670   8.778 -0.0220  0.0018 -0.1596
    7POPC   GL1  105   2.626   0.772   8.344 -0.2595 -0.4592 -0.3105
    7POPC   G1P  106   2.704   0.871   8.406 -0.1513 -0.5902 -0.2355
    7POPC   G1M  107   2.599   0.751   8.480 -0.1669 -0.5097 -0.2996
    7POPC   GL2  108   2.323   0.881   8.014  0.0505  0.0722 -0.2241
    7POPC   G2P  109   2.298   0.763   7.942 -0.3144 -0.0712  0.1213
    7POPC   G2M  110   2.241   0.820   8.109  0.0318  0.0471 -0.2561
    7POPC   C1A  111   2.565   1.193   7.833  0.2352 -0.1571 -0.1839
    7POPC   C2A  112   2.386   1.505   7.623 -0.0001 -0.0654 -0.0161
    7POPC   C3A  113   2.424   1.788   7.362  0.0107 -0.0425  0.1568
    7POPC   C4A  114   2.308   2.160   7.269  0.1954 -0.2956  0.1088
    7POPC   C1B  115   2.765   0.645   7.947 -0.3138  0.0030 -0.1669
    7POPC   C2B  116   2.924   0.526   7.616 -0.0231  0.1260  0.0678
    7POPC   D3B  117   3.080   0.134   7.562 -0.1730 -0.1805 -0.1497
    7POPC   C4B  118   3.222  11.911   7.642  0.0810 -0.0744 -0.2223
    7POPC   C5B  119   3.141  11.463   7.393 -0.1593 -0.0394  0.0275
    8POPC   NC3  120   7.618   8.883   8.305 -0.3553  0.0294 -0.2119
    8POPC   PO4  121   7.062   8.981   8.314 -0.0920 -0.1074  0.0147
    8POPC   GL1  122   6.921   8.737   7.922  0.2203 -0.0876 -0.1276
    8POPC   G1P  123   6.934   8.799   7.797 -0.1942 -0.2837 -0.2759
    8POPC   G1M  124   6.943   8.875   7.911  0.4626 -0.1381 -0.3172
    8POPC   GL2  125   6.599   8.833   7.798  0.5713 -0.1117  0.1335
    8POPC   G2P  126   6.693   8.886   7.709 -0.1732  0.4305 -0.3982
    8POPC   G2M  127   6.687   8.738   7.747  0.1664 -0.4714  0.0788
    8POPC   C1A  128   6.706   8.760   7.357  0.1153  0.1339  0.0194
    8POPC   C2A  129   6.446   8.540   7.006 -0.0610  0.1830  0.0236
    8POPC   C3A  130   6.193   8.209   6.810 -0.1172  0.1443  0.2418
    8POPC   C4A  131   5.920   8.166   6.576 -0.3694 -0.1198  0.2931
    8POPC   C1B  132   6.978   8.444   7.672 -0.1319 -0.0410 -0.1059
    8POPC   C2B  133   6.874   8.344   7.198  0.1501  0.2185  0.1508
    8POPC   D3B  134   7.110   8.413   6.839 -0.1789 -0.0369 -0.1933
    8POPC   C4B  135   7.291   8.062   6.625 -0.1515  0.0755 -0.1021
    8POPC   C5B  136   7.339   7.681   6.505  0.1949  0.1918  0.2781
    9POPC   NC3  137   2.244   8.506   9.476  0.1721 -0.3746  0.1868
    9POPC   PO4  138   2.323   8.490   8.897 -0.2155 -0.1048  0.1253
    9POPC   GL1  139   2.447   8.348   8.467  0.3462 -0.2860  0.0618
    9POPC   G1P  140   2.544   8.438   8.510 -0.2720  0.3294  0.2671
    9POPC   G1M  141   2.425   8.360   8.605  0.3670  0.0564  0.0398
    9POPC   GL2  142   2.282   8.107   8.378 -0.1272 -0.0016 -0.1673
    9POPC   G2P  143   2.320   8.071   8.248  0.3567  0.0931 -0.0614
    9POPC   G2M  144   2.400   8.035   8.354  0.0770  0.3742 -0.3324
    9POPC   C1A  145   2.111   8.038   7.933  0.1681  0.1354 -0.0489
    9POPC   C2A  146   2.151   7.560   7.689  0.2160 -0.1569  0.2775
    9POPC   C3A  147   2.246   7.291   7.403  0.1978 -0.0324 -0.3097
    9POPC   C4A  148   1.974   7.166   7.080  0.2182  0.3011  0.0300
    9POPC   C1B  149   2.420   8.450   7.974  0.2648  0.1451 -0.2588
    9POPC   C2B  150   2.537   8.750   7.649 -0.0718  0.1138 -0.3214
    9POPC   D3B  151   2.812   8.874   7.248 -0.0523  0.1668  0.1276
    9POPC   C4B  152   2.860   8.586   6.965  0.4050  0.0256  0.1351
    9POPC   C5B  153   2.686   8.524   6.567 -0.1749 -0.0591  0.3415
   10POPC   NC3  154   3.234   2.003   8.811 -0.0510  0.1543 -0.0852
   10POPC   PO4  155   3.496   2.372   8.378  0.0579 -0.0839  0.0241
   10POPC   GL1  156   3.197   2.457   7.950 -0.0137  0.0803  0.2599
   10POPC   G1P  157   3.098   2.553   7.925 -0.1402 -0.0963  0.0614
   10POPC   G1M  158   3.068   2.424   7.993 -0.0809 -0.0920 -0.0593
   10POPC   GL2  159   3.198   2.169   7.809 -0.0267 -0.2099  0.0605
   10POPC   G2P  160   3.271   2.056   7.849  0.5242  0.2344  0.3904
   10POPC   G2M  161   3.338   2.178   7.809 -0.0463  0.2185  0.0361
   10POPC   C1A  162   3.393   1.972   7.548  0.1342  0.4494 -0.2212
   10POPC   C2A  163   3.629   1.904   7.257 -0.0641 -0.2809 -0.1035
   10POPC   C3A  164   3.698   2.187   7.006 -0.3789  0.2725  0.2513
   10POPC   C4A  165   3.819   2.508   6.681 -0.1107  0.1186  0.1564
   10POPC   C1B  166   3.370   2.736   7.622 -0.0965  0.0726 -0.1825
   10POPC   C2B  167   3.288   3.140   7.363 -0.3879 -0.1985  0.1425
   10POPC   D3B  168   3.063   3.444   7.261  0.3130 -0.3525 -0.2827
   10POPC   C4B  169   2.588   3.557   7.168  0.2676 -0.2713  0.1328
   10POPC   C5B  170   2.274   3.447   6.803 -0.0089 -0.0228  0.1127
   11POPC   NC3  171   8.437   6.619   8.717 -0.4378 -0.0143  0.0796
   11POPC   PO4  172   8.810   6.150   8.752 -0.1875  0.2450  0.1655
   11POPC   GL1  173   8.853   6.257   8.249  0.2701 -0.4817 -0.2502
   11POPC   G1P  174   8.781   6.313   8.142  0.0237 -0.2154  0.0479
   11POPC   G1M  175   8.951   6.355   8.230  0.1050 -0.2532  0.0391
   11POPC   GL2  176   8.666   6.510   8.179  0.1382  0.0147  0.2620
   11POPC   G2P  177   8.764   6.421   8.225  0.0829 -0.2840 -0.1709
   11POPC   G2M  178   8.630   6.595   8.284 -0.1283  0.3436 -0.0810
   11POPC   C1A  179   8.901   6.643   7.824  0.3362 -0.0750 -0.0343
   11POPC   C2A  180   8.662   6.828   7.379  0.2757 -0.2077  0.1871
   11POPC   C3A  181   8.371   6.982   7.124  0.3123  0.0348  0.0924
   11POPC   C4A  182   8.252   7.082   6.699  0.4001 -0.0093 -0.1579
   11POPC   C1B  183   8.682   6.159   7.761 -0.0248 -0.0845  0.0444
   11POPC   C2B  184   8.706   6.312   7.302 -0.0433  0.2195  0.1901
   11POPC   D3B  185   8.959   6.601   7.028 -0.0493  0.4008  0.0701
   11POPC   C4B  186   8.792   6.709   6.586 -0.2002 -0.2218 -0.1589
   11POPC   C5B  187   8.842   7.054   6.290  0.0772 -0.0587  0.0509
   12POPC   NC3  188  11.741  11.233   8.752 -0.2282 -0.3470  0.1857
   12POPC   PO4  189  12.067  11.667   8.625  0.3367  0.1458 -0.0294
   12POPC   GL1  190   0.051  11.872   8.273 -0.3407 -0.0342  0.4285
   12POPC   G1P  191   0.158  11.927   8.201 -0.5099 -0.1455  0.0818
   12POPC   G1M  192   0.132  11.846   8.384 -0.1894 -0.0942  0.3056
   12POPC   GL2  193  11.965  11.937   8.029  0.5479 -0.2725 -0.2254
   12POPC   G2P  194  12.079  11.897   7.959  0.3221 -0.4306 -0.5130
   12POPC   G2M  195  12.072  12.017   8.072  0.2537 -0.0361  0.1032
   12POPC   C1A  196  11.992  12.087   7.617 -0.1009 -0.0040  0.3309
   12POPC   C2A  197  12.054   0.325   7.365 -0.1927  0.1907  0.1100
   12POPC   C3A  198  12.020   0.462   6.889 -0.0012 -0.0531 -0.0615
   12POPC   C4A  199  11.619   0.457   6.607 -0.3615  0.0087 -0.3014
   12POPC   C1B  200   0.527  11.785   8.129 -0.0752 -0.0249  0.1135
   12POPC   C2B  201   0.941  11.762   7.879 -0.0731 -0.1406  0.0153
   12POPC   D3B  202   1.327  11.447   7.878  0.0338  0.1813 -0.3543
   12POPC   C4B  203   1.336  10.959   7.669  0.1017  0.0336 -0.0019
   12POPC   C5B  204   1.257  10.673   7.344  0.1149  0.1550  0.0137
   13POPC   NC3  205  10.875   0.843   8.743  0.2505 -0.1046 -0.1814
   13POPC   PO4  206  10.919   1.459   8.763  0.0562  0.0945  0.2499
   13POPC   GL1  207  10.999   1.731   8.436  0.1497  0.0318  0.1528
   13POPC   G1P  208  11.082   1.841   8.463  0.2391  0.0009  0.0134
   13POPC   G1M  209  10.943   1.834   8.513 -0.0021  0.2484 -0.2328
   13POPC   GL2  210  11.246   1.666   8.223  0.0837  0.4310 -0.0363
   13POPC   G2P  211  11.149   1.725   8.305 -0.2594 -0.6378  0.4242
   13POPC   G2M  212  11.348   1.692   8.316  0.0351 -0.0953  0.1831
   13POPC   C1A  213  11.180   1.327   7.939 -0.0945  0.2055  0.2873
   13POPC   C2A  214  11.219   1.055   7.643  0.0262 -0.0007  0.2610
   13POPC   C3A  215  11.328   0.710   7.402  0.0045  0.2809 -0.2833
   13POPC   C4A  216  11.589   0.422   7.210  0.0762  0.2074  0.1102
   13POPC   C1B  217  11.019   2.017   8.060 -0.0895 -0.0163  0.3627
   13POPC   C2B  218  10.756   2.214   7.881  0.0099 -0.0188 -0.0671
   13POPC   D3B  219  10.324   2.326   7.832  0.1608  0.0782  0.1309
   13POPC   C4B  220   9.978   2.093   7.676  0.0042  0.1736  0.1330
   13POPC   C5B  221   9.735   2.299   7.243 -0.4065 -0.4604  0.2335
   14POPC   NC3  222   0.029   6.872   9.218 -0.0693  0.2585  0.1696
   14POPC   PO4  223  11.630   6.865   8.929 -0.2669 -0.0401  0.4678
   14POPC   GL1  224  11.623   6.825   8.407  0.0229 -0.5560 -0.1371
   14POPC   G1P  225  11.734   6.804   8.325  0.2680 -0.4080  0.1493
   14POPC   G1M  226  11.676   6.714   8.473  0.0210 -0.3297  0.2597
   14POPC   GL2  227  11.665   6.646   8.159 -0.5452 -0.1621  0.0983
   14POPC   G2P  228  11.588   6.701   8.056  0.3380 -0.1540 -0.6211
   14POPC   G2M  229  11.693   6.751   8.247  0.0810  0.1707 -0.4618
   14POPC   C1A  230  11.781   6.270   7.951 -0.0581 -0.0472 -0.2435
   14POPC   C2A  231  11.827   5.918   7.515 -0.0022 -0.1197 -0.0481
   14POPC   C3A  232  11.632   5.508   7.492  0.0323 -0.0116  0.1468
   14POPC   C4A  233  11.282   5.235   7.406 -0.2205  0.1755 -0.0560
   14POPC   C1B  234  11.429   7.054   8.008 -0.3982 -0.1387  0.0422
   14POPC   C2B  235  11.059   6.826   7.731 -0.1706  0.4217 -0.0629
   14POPC   D3B  236  10.632   6.791   7.645 -0.1319  0.0871 -0.0236
   14POPC   C4B  237  10.594   6.329   7.752 -0.3614  0.1820 -0.0058
   14POPC   C5B  238  10.845   5.936   7.534 -0.1540  0.1400 -0.2286
   15POPC   NC3  239   5.395   4.470   9.028  0.1632  0.2253 -0.3493
   15POPC   PO4  240   5.645   4.727   8.588  0.0514  0.1674 -0.4610
   15POPC   GL1  241   5.940   4.701   8.176 -0.1019  0.0772 -0.4385
   15POPC   G1P  242   5.880   4.779   8.275  0.4191  0.1176 -0.1339
   15POPC   G1M  243   5.801   4.709   8.167 -0.1678 -0.1987  0.1404
   15POPC   GL2  244   6.154   4.478   8.148 -0.0612 -0.2239 -0.2187
   15POPC   G2P  245   6.274   4.546   8.168 -0.1146 -0.0662 -0.4113
   15POPC   G2M  246   6.121   4.555   8.035 -0.3892 -0.0247  0.0054
   15POPC   C1A  247   5.910   4.209   7.763  0.0824  0.1714 -0.1941
   15POPC   C2A  248   5.785   4.195   7.466  0.2112 -0.0158  0.0150
   15POPC   C3A  249   5.813   4.313   7.101 -0.1651 -0.0304  0.2097
   15POPC   C4A  250   6.093   4.258   6.809  0.2368 -0.1767  0.0173
   15POPC   C1B  251   5.773   4.701   7.681  0.0926  0.1610  0.0082
   15POPC   C2B  252   5.435   4.632   7.347 -0.2175  0.0165  0.2354
   15POPC   D3B  253   5.390   4.936   6.885  0.1823  0.2261  0.1380
   15POPC   C4B  254   5.771   5.053   6.615 -0.1030  0.0068  0.2026
   15POPC   C5B  255   6.125   5.266   6.723 -0.1662  0.1716  0.0926
   16POPC   NC3  256  10.683   9.249   8.899  0.3993 -0.0283  0.0480
   16POPC   PO4  257  11.035   9.671   8.790 -0.0494  0.2415 -0.1808
   16POPC   GL1  258  11.191   9.901   8.370  0.2209  0.2184 -0.1925
   16POPC   G1P  259  11.255   9.988   8.458 -0.3390 -0.1093  0.5979
   16POPC   G1M  260  11.323   9.859   8.351  0.1157 -0.0860 -0.2942
   16POPC   GL2  261  11.115  10.278   8.274 -0.2906 -0.2245 -0.0832
   16POPC   G2P  262  11.193  10.162   8.271 -0.3962 -0.2970 -0.5709
   16POPC   G2M  263  11.072  10.227   8.397 -0.1667  0.4267  0.2481
   16POPC   C1A  264  11.121  10.134   7.849 -0.1360 -0.0042  0.1409
   16POPC   C2A  265  11.409   9.975   7.519  0.2838  0.3972 -0.4562
   16POPC   C3A  266  11.545   9.530   7.353  0.1462  0.1068 -0.1195
   16POPC   C4A  267  11.398   9.218   7.680  0.3867  0.0392  0.2831
   16POPC   C1B  268  10.989   9.717   8.084  0.1610 -0.1485  0.1844
   16POPC   C2B  269  10.881   9.270   8.012 -0.0554  0.0534  0.2758
   16POPC   D3B  270  10.459   9.103   7.995  0.0954 -0.0676 -0.0199
   16POPC   C4B  271  10.464   8.749   7.723  0.3877  0.2198  0.0556
   16POPC   C5B  272  10.464   8.400   7.428  0.0168 -0.1160  0.0631
   17POPC   NC3  273   2.293   7.963   8.872  0.1173 -0.1402 -0.1419
   17POPC   PO4  274   1.689   7.812   8.825  0.2175 -0.0435  0.0947
   17POPC   GL1  275   1.619   7.792   8.406  0.0556 -0.3168  0.1461
   17POPC   G1P  276   1.611   7.686   8.315 -0.0460 -0.2379  0.0613
   17POPC   G1M  277   1.749   7.759   8.445  0.2038  0.1138  0.0444
   17POPC   GL2  278   1.624   8.065   8.124  0.0304  0.7578 -0.1329
   17POPC   G2P  279   1.563   8.183   8.168 -0.2001  0.4730  0.3552
   17POPC   G2M  280   1.554   8.042   8.006  0.4176  0.1055 -0.2587
   17POPC   C1A  281   1.719   8.440   7.837 -0.1669  0.0577 -0.1396
   17POPC   C2A  282   1.543   8.439   7.456 -0.0939  0.3060 -0.0680
   17POPC   C3A  283   1.198   8.372   7.299 -0.1138  0.4149  0.0414
   17POPC   C4A  284   1.019   8.128   7.036  0.0938 -0.1119 -0.1295
   17POPC   C1B  285   1.749   7.615   7.999 -0.2480 -0.2433 -0.2563
   17POPC   C2B  286   1.483   7.431   7.697 -0.5489  0.0627  0.2458
   17POPC   D3B  287   1.591   7.487   7.270 -0.0146 -0.1873  0.1873
   17POPC   C4B  288   2.018   7.722   7.156 -0.1926  0.1649  0.0555
   17POPC   C5B  289   2.351   7.915   7.333 -0.4439 -0.0262  0.0134
   18POPC   NC3  290   8.053   8.164   8.635  0.0948 -0.0826 -0.3442
   18POPC   PO4  291   7.853   7.665   8.640  0.0434  0.1944  0.0954
   18POPC   GL1  292   8.006   7.687   8.261 -0.2016  0.0310  0.3473
   18POPC   G1P  293   7.927   7.601   8.184  0.4505 -0.2021 -0.1142
   18POPC   G1M  294   7.981   7.554   8.297  0.2735 -0.1620  0.0133
   18POPC   GL2  295   7.720   7.577   8.093 -0.0692 -0.0104 -0.3377
   18POPC   G2P  296   7.833   7.495   8.098  0.1428  0.2907  0.0022
   18POPC   G2M  297   7.846   7.620   8.136 -0.4433  0.5920  0.2623
   18POPC   C1A  298   7.381   7.567   7.753  0.1907  0.0335 -0.2270
   18POPC   C2A  299   7.299   7.834   7.498 -0.2699  0.1695 -0.0950
   18POPC   C3A  300   7.150   7.981   7.140  0.4785  0.1284 -0.2143
   18POPC   C4A  301   6.829   7.949   6.834  0.1933 -0.1814 -0.1335
   18POPC   C1B  302   8.276   7.514   7.892 -0.3612 -0.1867 -0.0399
   18POPC   C2B  303   8.403   7.409   7.396  0.0365  0.1219  0.2042
   18POPC   D3B  304   8.596   7.474   6.998  0.1643 -0.2366 -0.4386
   18POPC   C4B  305   8.892   7.675   6.855 -0.0088 -0.0802  0.0821
   18POPC   C5B  306   9.213   7.504   6.996 -0.2397 -0.1517  0.1112
   19POPC   NC3  307  10.488   7.279   9.263  0.1297  0.1888  0.2012
   19POPC   PO4  308  10.188   7.427   8.859  0.2955  0.0058  0.0453
   19POPC   GL1  309  10.244   7.458   8.357 -0.1012  0.2130  0.1273
   19POPC   G1P  310  10.111   7.437   8.320 -0.0373 -0.0029  0.0132
   19POPC   G1M  311  10.160   7.504   8.459 -0.3016  0.2925 -0.0675
   19POPC   GL2  312  10.036   7.630   8.199  0.3264  0.1750  0.0952
   19POPC   G2P  313  10.131   7.720   8.150  0.1513  0.1115 -0.3923
   19POPC   G2M  314   9.957   7.742   8.225 -0.2650 -0.1013 -0.3734
   19POPC   C1A  315   9.928   7.511   7.756  0.0931 -0.1651  0.1999
   19POPC   C2A  316   9.984   7.622   7.302  0.0930  0.1027 -0.1315
   19POPC   C3A  317   9.963   7.648   6.791 -0.0360 -0.1020  0.1015
   19POPC   C4A  318   9.780   7.937   6.432 -0.1595  0.1026  0.4723
   19POPC   C1B  319  10.314   7.222   7.956  0.3274 -0.2253 -0.0698
   19POPC   C2B  320  10.702   7.284   7.758  0.1337 -0.1254  0.0715
   19POPC   D3B  321  11.128   7.432   7.929  0.1655  0.1059 -0.2551
   19POPC   C4B  322  11.614   7.463   7.933 -0.1263  0.0722 -0.0932
   19POPC   C5B  323  11.716   7.710   8.238 -0.1257  0.2994 -0.1251
   20POPC   NC3  324   4.558   1.001   8.912  0.1624  0.0513 -0.2476
   20POPC   PO4  325   4.336   1.258   8.541 -0.4646  0.3891 -0.0229
   20POPC   GL1  326   4.581   1.268   8.084 -0.5906  0.1792 -0.3506
   20POPC   G1P  327   4.477   1.360   8.094 -0.1064  0.7185  0.0666
   20POPC   G1M  328   4.587   1.357   7.976 -0.5576 -0.3301 -0.7922
   20POPC   GL2  329   4.499   0.935   7.982  0.2861  0.0945  0.0552
   20POPC   G2P  330   4.371   0.905   8.030  0.3566  0.7710  0.7832
   20POPC   G2M  331   4.431   1.042   7.923 -0.4431 -0.3561  0.0201
   20POPC   C1A  332   4.726   0.825   7.622  0.1256 -0.2746  0.0303
   20POPC   C2A  333   5.197   0.943   7.466  0.0679  0.2809  0.0029
   20POPC   C3A  334   5.662   1.060   7.240  0.2120 -0.2105 -0.3068
   20POPC   C4A  335   5.611   1.383   6.929 -0.2096  0.0010 -0.2820
   20POPC   C1B  336   4.852   1.376   7.782  0.0226  0.1202 -0.0085
   20POPC   C2B  337   4.844   1.387   7.309  0.1823 -0.1022  0.1618
   20POPC   D3B  338   5.148   1.051   7.019  0.1957  0.0447 -0.3282
   20POPC   C4B  339   5.349   1.015   6.690 -0.0708  0.0069 -0.1030
   20POPC   C5B  340   5.651   0.697   6.577  0.1265 -0.2700  0.3933
   21POPC   NC3  341   6.506   2.914   8.435  0.1548 -0.2130  0.0981
   21POPC   PO4  342   6.373   3.402   8.713 -0.0694  0.1822 -0.1981
   21POPC   GL1  343   6.318   3.611   8.291 -0.1754 -0.1327 -0.1124
   21POPC   G1P  344   6.447   3.602   8.344 -0.1396 -0.5384 -0.2513
   21POPC   G1M  345   6.352   3.485   8.343 -0.0838 -0.1128 -0.1228
   21POPC   GL2  346   6.045   3.415   8.142  0.5158  0.0221 -0.1701
   21POPC   G2P  347   6.062   3.492   8.258 -0.1712  0.2759 -0.2154
   21POPC   G2M  348   6.010   3.340   8.256  0.2552  0.1075 -0.1910
   21POPC   C1A  349   6.015   3.626   7.759  0.2675  0.3030 -0.2464
   21POPC   C2A  350   6.156   3.866   7.512  0.0222  0.0836  0.0930
   21POPC   C3A  351   6.311   4.245   7.323 -0.0661 -0.0688 -0.1309
   21POPC   C4A  352   6.154   4.571   7.397 -0.0401 -0.0737  0.0194
   21POPC   C1B  353   6.423   3.897   7.982  0.2215  0.2297 -0.0935
   21POPC   C2B  354   6.669   4.130   7.699 -0.1613  0.4507  0.2585
   21POPC   D3B  355   6.862   4.239   7.362  0.1078  0.3095  0.0725
   21POPC   C4B  356   6.700   4.084   6.931  0.1002 -0.0363  0.0985
   21POPC   C5B  357   6.543   3.788   6.729  0.1805  0.1347  0.1042
   22POPC   NC3  358   2.802   0.622   8.957  0.0893  0.2801 -0.3229
   22POPC   PO4  359   2.961   1.071   8.602  0.0825  0.2558 -0.2380
   22POPC   GL1  360   3.152   1.065   8.135  0.1482  0.0399  0.1032
   22POPC   G1P  361   3.171   1.043   8.272  0.0339  0.1177  0.1330
   22POPC   G1M  362   3.068   0.982   8.210  0.1146  0.3908  0.4766
   22POPC   GL2  363   3.318   0.803   8.008  0.0573  0.4465  0.1138
   22POPC   G2P  364   3.302   0.940   8.032 -0.0908  0.4567 -0.0330
   22POPC   G2M  365   3.440   0.862   7.973  0.1109  0.6551  0.6090
   22POPC   C1A  366   3.466   0.961   7.604 -0.1886 -0.4226 -0.1881
   22POPC   C2A  367   3.326   0.881   7.196  0.1046  0.2544 -0.0620
   22POPC   C3A  368   3.622   0.829   6.896  0.1763  0.2199  0.2321
   22POPC   C4A  369   3.821   1.132   6.680 -0.2074 -0.0670 -0.1373
   22POPC   C1B  370   2.974   1.027   7.607  0.1984  0.0483 -0.0666
   22POPC   C2B  371   2.824   0.849   7.175 -0.0606 -0.0196  0.0692
   22POPC   D3B  372   2.525   1.047   6.872 -0.0074  0.3379 -0.2279
   22POPC   C4B  373   2.572   1.565   6.874  0.0475 -0.0667 -0.1325
   22POPC   C5B  374   2.724   1.921   6.977 -0.2889  0.1756 -0.3222
   23POPC   NC3  375   9.858   2.933   9.070  0.0399 -0.3197  0.2418
   23POPC   PO4  376   9.635   3.030   8.553 -0.0504  0.1893  0.1970
   23POPC   GL1  377   9.730   3.186   8.081  0.4412  0.3091 -0.0328
   23POPC   G1P  378   9.724   3.181   7.941 -0.0532 -0.1661 -0.0144
   23POPC   G1M  379   9.674   3.058   8.068 -0.1016  0.5362 -0.0614
   23POPC   GL2  380  10.004   3.078   7.842  0.3001 -0.1434 -0.0418
   23POPC   G2P  381  10.067   3.137   7.952 -0.5182  0.2397  0.2574
   23POPC   G2M  382   9.902   3.157   7.898  0.1487 -0.0958 -0.3761
   23POPC   C1A  383  10.397   3.169   7.653 -0.0564 -0.1134  0.3737
   23POPC   C2A  384  10.821   3.455   7.501  0.2014  0.1504 -0.0645
   23POPC   C3A  385  10.864   3.800   7.237  0.2845  0.0071 -0.0740
   23POPC   C4A  386  11.084   4.121   7.050  0.1489 -0.0872  0.5538
   23POPC   C1B  387   9.473   3.355   7.777  0.1817 -0.2527 -0.1656
   23POPC   C2B  388   9.133   3.621   7.703  0.2388 -0.3772  0.0256
   23POPC   D3B  389   8.851   3.920   7.515  0.1468  0.0088  0.2518
   23POPC   C4B  390   9.040   4.196   7.192 -0.1120  0.0462 -0.1071
   23POPC   C5B  391   9.516   4.310   7.050 -0.2019 -0.0131 -0.1873
   24POPC   NC3  392   0.071  10.019   8.784  0.1354 -0.2488 -0.2180
   24POPC   PO4  393   0.384  10.419   8.888  0.0574 -0.0734  0.1133
   24POPC   GL1  394   0.320  10.403   8.404 -0.0284 -0.4817 -0.2905
   24POPC   G1P  395   0.379  10.492   8.313  0.7663 -0.0456  0.5585
   24POPC   G1M  396   0.265  10.532   8.397  0.5211 -0.2343 -0.3292
   24POPC   GL2  397   0.085  10.584   8.311  0.0502 -0.1106 -0.1459
   24POPC   G2P  398   0.201  10.562   8.237  0.1774 -0.4568  0.1417
   24POPC   G2M  399   0.207  10.626   8.258 -0.0051  0.0320 -0.1622
   24POPC   C1A  400  12.105  10.969   8.119  0.0315 -0.0919 -0.1340
   24POPC   C2A  401   0.117  11.255   7.924 -0.1122 -0.0325  0.4071
   24POPC   C3A  402   0.116  11.645   7.741 -0.0412  0.1655 -0.3319
   24POPC   C4A  403   0.353  12.085   7.701 -0.0855  0.3627 -0.5300
   24POPC   C1B  404   0.633  10.441   8.046 -0.1911 -0.1507 -0.1331
   24POPC   C2B  405   0.603  10.377   7.550  0.1137  0.1368  0.1922
   24POPC   D3B  406   0.292  10.231   7.134 -0.0841  0.2063 -0.1511
   24POPC   C4B  407   0.050  10.540   6.942 -0.1083  0.2715  0.0248
   24POPC   C5B  408  12.100  10.844   7.116 -0.0070  0.1105 -0.1140
   25POPC   NC3  409   5.532   0.061   8.504 -0.1667 -0.3390 -0.2060
   25POPC   PO4  410   6.008  12.024   8.183  0.4225 -0.1195 -0.1567
   25POPC   GL1  411   6.158  12.090   7.770 -0.3488 -0.2868 -0.0928
   25POPC   G1P  412   6.247  12.183   7.824  0.0531 -0.4386 -0.4589
   25POPC   G1M  413   6.223  12.049   7.886  0.1601  0.5013 -0.0625
   25POPC   GL2  414   6.281  11.805   7.694  0.2162  0.0448 -0.1311
   25POPC   G2P  415   6.223  11.908   7.769  0.3666 -0.1824  0.3145
   25POPC   G2M  416   6.152  11.818   7.643  0.2099 -0.5374 -0.3068
   25POPC   C1A  417   6.625  12.051   7.521  0.1116  0.0536  0.0397
   25POPC   C2A  418   6.940   0.295   7.519  0.1125  0.0089 -0.0769
   25POPC   C3A  419   7.407   0.317   7.546 -0.0191 -0.2620 -0.3172
   25POPC   C4A  420   7.687   0.352   7.823  0.2045  0.1716  0.0981
   25POPC   C1B  421   6.180   0.166   7.427 -0.0394 -0.0326  0.1364
   25POPC   C2B  422   5.956   0.287   7.005 -0.0542 -0.0490  0.0702
   25POPC   D3B  423   6.080   0.467   6.584 -0.0820 -0.0426 -0.0730
   25POPC   C4B  424   6.319   0.784   6.542  0.0383 -0.1259 -0.0617
   25POPC   C5B  425   6.437   1.088   6.326  0.0167  0.1732 -0.2102
   26POPC   NC3  426   9.606   1.835   8.898  0.1245 -0.1504  0.2639
   26POPC   PO4  427   9.760   1.720   8.418  0.1769  0.0668 -0.0340
   26POPC   GL1  428   9.680   1.723   8.078 -0.3975 -0.1560  0.1261
   26POPC   G1P  429   9.616   1.668   8.189  0.0256 -0.1857  0.3667
   26POPC   G1M  430   9.770   1.632   8.135  0.1187  0.3307  0.1339
   26POPC   GL2  431   9.613   2.022   8.078 -0.4217  0.0045  0.1818
   26POPC   G2P  432   9.606   1.933   8.186 -0.5750 -0.2374 -0.0217
   26POPC   G2M  433   9.634   2.106   8.188 -0.4199  0.1570  0.0662
   26POPC   C1A  434   9.437   2.317   7.721  0.2294 -0.0317  0.0619
   26POPC   C2A  435   9.133   2.534   7.560  0.0268 -0.1072  0.3432
   26POPC   C3A  436   9.023   2.727   7.230 -0.0037  0.1944 -0.3285
   26POPC   C4A  437   8.648   2.876   7.036 -0.0693 -0.2216  0.1985
   26POPC   C1B  438   9.737   1.517   7.703  0.0965 -0.1853  0.1054
   26POPC   C2B  439   9.463   1.419   7.441  0.2002  0.1448 -0.3353
   26POPC   D3B  440   9.315   1.113   7.319 -0.0242  0.1812 -0.1388
   26POPC   C4B  441   8.875   1.304   7.398 -0.1427  0.1981 -0.3059
   26POPC   C5B  442   8.652   1.255   7.854  0.0591 -0.3601  0.3000
   27POPC   NC3  443   4.099   9.430   8.581  0.0600  0.1259 -0.4790
   27POPC   PO4  444   4.362   9.061   8.365 -0.0921  0.0230 -0.1083
   27POPC   GL1  445   4.124   9.188   7.942 -0.4320 -0.0277 -0.1191
   27POPC   G1P  446   4.254   9.231   7.911 -0.3813  0.3297  0.4944
   27POPC   G1M  447   4.093   9.317   7.989 -0.0461  0.1564 -0.3403
   27POPC   GL2  448   3.800   9.178   8.109  0.5255 -0.0238 -0.1351
   27POPC   G2P  449   3.809   9.058   8.179  0.2892 -0.0626 -0.1670
   27POPC   G2M  450   3.811   9.114   8.233  0.2067 -0.0339 -0.1093
   27POPC   C1A  451   3.663   8.904   7.840  0.2409 -0.0164  0.2883
   27POPC   C2A  452   3.914   8.672   7.587  0.1193 -0.0803  0.1105
   27POPC   C3A  453   4.043   8.505   7.169  0.1207  0.2845  0.0207
   27POPC   C4A  454   4.268   8.109   7.142 -0.1790 -0.0777 -0.0795
   27POPC   C1B  455   3.890   9.272   7.559  0.0044  0.1375  0.2306
   27POPC   C2B  456   3.498   9.362   7.530  0.1532 -0.0332  0.2165
   27POPC   D3B  457   3.277   9.420   7.108  0.0863  0.2600 -0.0190
   27POPC   C4B  458   3.426   9.298   6.733  0.0308  0.0363 -0.2651
   27POPC   C5B  459   3.394   9.137   6.312  0.2066 -0.1494  0.0229
   28POPC   NC3  460  11.785   5.518   8.833  0.0761 -0.0582  0.1118
   28POPC   PO4  461  11.871   4.963   8.565 -0.0569  0.0661 -0.1249
   28POPC   GL1  462  11.770   4.767   8.102 -0.3620  0.6086  0.0072
   28POPC   G1P  463  11.685   4.659   8.126  0.6124 -0.2070  0.1447
   28POPC   G1M  464  11.720   4.779   8.232 -0.3989  0.2710  0.0285
   28POPC   GL2  465  12.031   4.820   8.007  0.0838 -0.1545 -0.1986
   28POPC   G2P  466  12.034   4.934   8.088 -0.0836 -0.5333  0.3796
   28POPC   G2M  467  12.082   4.808   8.137  0.0449  0.1021 -0.1579
   28POPC   C1A  468  11.939   5.064   7.587 -0.0258 -0.1023 -0.1977
   28POPC   C2A  469  11.742   5.092   7.216 -0.1600  0.2697  0.0258
   28POPC   C3A  470  11.646   5.518   6.987  0.0531  0.0235 -0.1642
   28POPC   C4A  471  11.303   5.587   6.726 -0.0449 -0.1362  0.0594
   28POPC   C1B  472  11.842   4.433   7.798 -0.1545  0.1742 -0.1355
   28POPC   C2B  473  11.955   3.925   7.746 -0.3397 -0.1930  0.0114
   28POPC   D3B  474   0.094   3.753   7.581 -0.1828 -0.1666 -0.1878
   28POPC   C4B  475   0.529   3.887   7.451 -0.0053  0.0098  0.1801
   28POPC   C5B  476   0.567   4.028   7.032  0.1826  0.2218  0.0792
   29POPC   NC3  477   9.919   8.960   8.539 -0.0649  0.2994 -0.2125
   29POPC   PO4  478   9.623   9.442   8.315 -0.0748  0.2992  0.1644
   29POPC   GL1  479   9.403   9.382   7.883  0.6103  0.0284 -0.2679
   29POPC   G1P  480   9.302   9.377   7.786 -0.2948 -0.0665  0.5903
   29POPC   G1M  481   9.343   9.258   7.907 -0.1825  0.3922 -0.1936
   29POPC   GL2  482   9.383   9.647   7.800 -0.0538 -0.5589 -0.7140
   29POPC   G2P  483   9.363   9.626   7.937 -0.2400  0.7145 -0.4825
   29POPC   G2M  484   9.245   9.664   7.818  0.1207  0.8506 -0.0227
   29POPC   C1A  485   9.689   9.864   7.539  0.2521  0.1230 -0.0309
   29POPC   C2A  486   9.912  10.091   7.204 -0.1597  0.0553 -0.1834
   29POPC   C3A  487   9.880  10.493   6.984  0.0175  0.2669 -0.0633
   29POPC   C4A  488   9.821  10.854   6.666  0.1661 -0.0362 -0.0184
   29POPC   C1B  489   9.686   9.301   7.585 -0.3405  0.0713  0.1731
   29POPC   C2B  490  10.036   9.217   7.549 -0.1192  0.0431 -0.1908
   29POPC   D3B  491  10.384   9.354   7.332 -0.3237  0.3285 -0.0942
   29POPC   C4B  492  10.595   9.282   6.948 -0.0885 -0.1971  0.0282
   29POPC   C5B  493  10.947   9.062   6.779  0.1756  0.2054  0.0277
   30POPC   NC3  494   2.138  10.185   9.103 -0.1148 -0.1854 -0.1228
   30POPC   PO4  495   1.914   9.757   8.766 -0.0976 -0.0614 -0.0644
   30POPC   GL1  496   1.699   9.578   8.386  0.1675 -0.3524  0.1409
   30POPC   G1P  497   1.619   9.558   8.273 -0.2845  0.3105  0.3130
   30POPC   G1M  498   1.649   9.456   8.339  0.2070 -0.2360 -0.2130
   30POPC   GL2  499   2.025   9.336   8.404 -0.2125  0.1230 -0.1464
   30POPC   G2P  500   1.996   9.206   8.446  0.1112 -0.0351 -0.3878
   30POPC   G2M  501   2.129   9.330   8.498 -0.0554  0.0378 -0.3228
   30POPC   C1A  502   1.902   9.241   8.032 -0.1368  0.0036  0.1060
   30POPC   C2A  503   1.947   8.905   7.591  0.0194 -0.0673  0.0140
   30POPC   C3A  504   2.298   8.876   7.245  0.1852  0.0358 -0.0702
   30POPC   C4A  505   2.391   8.731   6.879 -0.1755 -0.2197 -0.1309
   30POPC   C1B  506   1.463   9.565   8.018 -0.2501 -0.1941  0.1710
   30POPC   C2B  507   1.124   9.443   7.713 -0.2647  0.2019  0.0581
   30POPC   D3B  508   1.102   9.253   7.274 -0.1152 -0.3293  0.3557
   30POPC   C4B  509   0.904   9.381   6.830  0.1787  0.0937  0.0834
   30POPC   C5B  510   0.565   9.267   6.510  0.0674 -0.0788  0.0891
   31POPC   NC3  511   8.562   9.815   8.456 -0.2494 -0.1387 -0.0221
   31POPC   PO4  512   8.805   9.414   8.270  0.1550 -0.2307  0.3019
   31POPC   GL1  513   8.915   9.529   7.779  0.2817  0.1293 -0.4856
   31POPC   G1P  514   8.976   9.436   7.695 -0.6034 -0.6127 -0.3872
   31POPC   G1M  515   8.901   9.403   7.839  0.2803  0.2299 -0.2670
   31POPC   GL2  516   8.864   9.878   7.854 -0.2628 -0.4381  0.2315
   31POPC   G2P  517   8.802   9.898   7.730 -0.4491 -0.1920  0.3598
   31POPC   G2M  518   8.837  10.010   7.816 -0.0336 -0.3384  0.4058
   31POPC   C1A  519   8.805  10.296   7.726  0.0066 -0.1906 -0.3279
   31POPC   C2A  520   9.105  10.558   7.689  0.2720 -0.1399 -0.1848
   31POPC   C3A  521   9.158  10.883   7.963  0.0644 -0.2691 -0.2316
   31POPC   C4A  522   9.238  11.328   7.956 -0.0846 -0.1104  0.3321
   31POPC   C1B  523   9.153   9.522   7.391 -0.0206 -0.1363  0.2094
   31POPC   C2B  524   9.433   9.674   7.087  0.0120 -0.1158  0.0430
   31POPC   D3B  525   9.485   9.713   6.672 -0.0483 -0.1145  0.0895
   31POPC   C4B  526   9.436   9.825   6.256 -0.0299  0.2521  0.1124
   31POPC   C5B  527   9.221  10.110   6.066 -0.0876  0.0961 -0.2248
   32POPC   NC3  528  10.040   9.604   8.444 -0.0419  0.2090  0.0465
   32POPC   PO4  529  10.329   9.187   8.513 -0.2136  0.0695  0.0198
   32POPC   GL1  530  10.368   8.815   8.377  0.0812 -0.0217 -0.0377
   32POPC   G1P  531  10.435   8.836   8.498 -0.0879 -0.0791  0.0679
   32POPC   G1M  532  10.262   8.894   8.426 -0.3268 -0.3328 -0.3837
   32POPC   GL2  533  10.116   8.645   8.142 -0.2365 -0.4096  0.3841
   32POPC   G2P  534  10.012   8.619   8.232 -0.0197 -0.5084  0.6132
   32POPC   G2M  535  10.215   8.574   8.211  0.1325 -0.2500  0.0393
   32POPC   C1A  536   9.905   8.655   7.726  0.0272 -0.0173  0.3204
   32POPC   C2A  537   9.897   8.320   7.302  0.1748  0.0157 -0.1705
   32POPC   C3A  538   9.700   8.085   6.890  0.0551  0.0089  0.1938
   32POPC   C4A  539   9.333   7.890   6.648  0.2890 -0.0440  0.2697
   32POPC   C1B  540  10.727   8.623   8.149  0.1085  0.1083  0.0433
   32POPC   C2B  541  11.131   8.451   7.813  0.2602  0.1760  0.1845
   32POPC   D3B  542  10.950   8.470   7.383 -0.1217 -0.1087  0.1328
   32POPC   C4B  543  11.046   8.577   6.882  0.1543  0.0517  0.0735
   32POPC   C5B  544  10.900   8.583   6.379  0.0834  0.1785  0.2315
   33POPC   NC3  545   5.625   6.974   8.177 -0.3379 -0.0851 -0.2333
   33POPC   PO4  546   6.038   7.146   8.500 -0.1698  0.0348  0.0234
   33POPC   GL1  547   6.149   6.934   8.084  0.1275 -0.1038 -0.4449
   33POPC   G1P  548   6.029   6.952   8.014 -0.2074 -0.3059  0.0518
   33POPC   G1M  549   6.196   6.923   8.215  0.0976  0.5068 -0.3664
   33POPC   GL2  550   6.423   7.113   7.870  0.1431  0.3064 -0.2863
   33POPC   G2P  551   6.374   7.239   7.833 -0.8041  0.0157 -0.1745
   33POPC   G2M  552   6.342   7.203   7.940 -0.4018 -0.3491 -0.0175
   33POPC   C1A  553   6.594   7.382   7.482  0.1216  0.0889 -0.0716
   33POPC   C2A  554   6.763   7.501   7.082 -0.3916 -0.1911  0.2066
   33POPC   C3A  555   7.086   7.443   6.934  0.1283  0.2158  0.0401
   33POPC   C4A  556   7.353   7.108   6.847  0.4098  0.0019 -0.2922
   33POPC   C1B  557   6.151   6.732   7.639 -0.2440 -0.0300  0.0734
   33POPC   C2B  558   6.082   6.475   7.291 -0.1772  0.1375 -0.3226
   33POPC   D3B  559   6.153   6.162   7.049  0.0912 -0.4285  0.0326
   33POPC   C4B  560   5.844   5.835   6.921  0.1609  0.0526  0.4538
   33POPC   C5B  561   5.670   5.368   7.048  0.3037  0.1104  0.1024
   34POPC   NC3  562   8.234   6.713   9.345  0.0011  0.1283  0.0459
   34POPC   PO4  563   8.019   6.488   8.894  0.0646  0.3124 -0.3608
   34POPC   GL1  564   7.920   6.305   8.464 -0.1402 -0.2578 -0.2654
   34POPC   G1P  565   8.043   6.242   8.443  0.1294  0.2150 -0.1655
   34POPC   G1M  566   8.029   6.316   8.550 -0.1838 -0.7014 -0.1406
   34POPC   GL2  567   7.514   6.271   8.393 -0.4063 -0.2420 -0.0099
   34POPC   G2P  568   7.385   6.322   8.372 -0.3586 -0.1425 -0.0686
   34POPC   G2M  569   7.410   6.185   8.431 -0.1582 -0.3955  0.3476
   34POPC   C1A  570   7.369   6.649   8.012 -0.0901  0.1002 -0.1068
   34POPC   C2A  571   6.974   6.788   7.824  0.2062 -0.2203  0.1892
   34POPC   C3A  572   6.682   6.845   7.491 -0.4424 -0.1554  0.0380
   34POPC   C4A  573   6.411   6.987   7.176 -0.0560  0.2108 -0.2612
   34POPC   C1B  574   7.962   6.421   8.148 -0.1616 -0.0038 -0.0342
   34POPC   C2B  575   7.867   6.393   7.729 -0.3228 -0.1534 -0.0042
   34POPC   D3B  576   7.750   6.629   7.416 -0.0379  0.1391 -0.0241
   34POPC   C4B  577   7.853   6.981   7.239  0.0600 -0.1134  0.2750
   34POPC   C5B  578   7.893   7.386   7.491 -0.2589 -0.0689 -0.0931
   35POPC   NC3  579  10.278  10.997   8.493  0.0871  0.3283 -0.2260
   35POPC   PO4  580   9.830  10.671   8.598 -0.0414  0.0351  0.0349
   35POPC   GL1  581   9.840  10.894   8.117  0.1553 -0.0313  0.3187
   35POPC   G1P  582   9.955  10.878   8.038 -0.0194 -0.1198  0.0754
   35POPC   G1M  583   9.890  10.793   8.200  0.7104  0.2416  0.3428
   35POPC   GL2  584   9.991  11.125   8.065  0.0542 -0.1488 -0.1821
   35POPC   G2P  585  10.121  11.082   8.095  0.1687 -0.0113 -0.4635
   35POPC   G2M  586  10.005  10.995   8.014 -0.0636 -0.3578  0.2820
   35POPC   C1A  587  10.165  11.452   7.854 -0.0830 -0.1227 -0.0332
   35POPC   C2A  588  10.489  11.540   7.575  0.2032  0.0506 -0.0572
   35POPC   C3A  589  10.799  11.370   7.344  0.1532  0.0302  0.1548
   35POPC   C4A  590  10.808  11.530   6.974  0.2426 -0.0117  0.0979
   35POPC   C1B  591   9.639  10.945   7.692  0.1285 -0.0469  0.2797
   35POPC   C2B  592   9.273  11.083   7.478 -0.0936  0.0990  0.0663
   35POPC   D3B  593   9.044  11.037   7.083 -0.3388 -0.3264  0.2194
   35POPC   C4B  594   9.038  11.379   6.826 -0.1001 -0.1098  0.0401
   35POPC   C5B  595   9.072  11.794   7.103  0.0788 -0.0946  0.1400
   36POPC   NC3  596   0.457   0.612   8.357 -0.1864 -0.0805  0.1433
   36POPC   PO4  597   0.799   1.054   8.261 -0.1026 -0.0386  0.0947
   36POPC   GL1  598   0.697   1.066   7.851 -0.2283 -0.0745 -0.3313
   36POPC   G1P  599   0.568   1.020   7.823 -0.3355  0.1133 -0.1585
   36POPC   G1M  600   0.721   0.941   7.909  0.1401 -0.0867 -0.4958
   36POPC   GL2  601   0.399   1.238   7.783 -0.2292  0.2628  0.0190
   36POPC   G2P  602   0.424   1.312   7.667  0.2148 -0.0942 -0.1291
   36POPC   G2M  603   0.354   1.157   7.678  0.3879 -0.0976  0.0075
   36POPC   C1A  604   0.050   1.088   7.820 -0.1883 -0.1359 -0.0975
   36POPC   C2A  605  11.780   1.169   7.563 -0.1498  0.0192 -0.0630
   36POPC   C3A  606  11.567   1.316   7.328  0.1774  0.0294 -0.0546
   36POPC   C4A  607  11.117   1.286   7.214  0.1564 -0.1416 -0.1384
   36POPC   C1B  608   1.058   1.162   7.440  0.1769 -0.3540 -0.1841
   36POPC   C2B  609   1.352   0.975   7.066  0.1945 -0.1698  0.0634
   36POPC   D3B  610   1.703   1.107   7.050 -0.0886 -0.0759  0.1009
   36POPC   C4B  611   1.981   0.871   6.947  0.0314  0.2720  0.2170
   36POPC   C5B  612   2.231   0.683   6.627  0.3665  0.2500 -0.0932
   37POPC   NC3  613   4.619   7.125   8.354  0.1099 -0.0695  0.2834
   37POPC   PO4  614   4.516   7.533   8.761  0.1958  0.1782  0.1629
   37POPC   GL1  615   4.562   7.742   8.343  0.0266  0.1586 -0.4159
   37POPC   G1P  616   4.491   7.853   8.293 -0.1982  0.1224 -0.1829
   37POPC   G1M  617   4.475   7.826   8.413 -0.2253 -0.1391 -0.3645
   37POPC   GL2  618   4.468   7.493   8.058 -0.3364 -0.0589 -0.4203
   37POPC   G2P  619   4.547   7.442   8.163 -0.3315  0.2466 -0.2722
   37POPC   G2M  620   4.596   7.473   8.004 -0.1070  0.4839 -0.1179
   37POPC   C1A  621   4.319   7.140   7.894 -0.0608 -0.0808  0.1384
   37POPC   C2A  622   4.313   6.787   7.496  0.1967  0.1218 -0.1685
   37POPC   C3A  623   4.560   6.860   7.177  0.2552 -0.1067 -0.1646
   37POPC   C4A  624   5.029   6.870   7.260 -0.4183  0.2076  0.1689
   37POPC   C1B  625   4.594   8.103   8.034  0.2169 -0.3755  0.0260
   37POPC   C2B  626   4.854   8.460   7.887  0.0863 -0.0449  0.2373
   37POPC   D3B  627   4.974   8.655   7.501 -0.3204  0.1352  0.0627
   37POPC   C4B  628   5.313   8.871   7.671  0.0499  0.1757  0.0704
   37POPC   C5B  629   5.697   8.761   7.980  0.1229 -0.1793 -0.1714
   38POPC   NC3  630   0.147   5.038   8.460  0.0024  0.0273  0.0482
   38POPC   PO4  631   0.513   5.168   8.593 -0.0142  0.3047  0.4100
   38POPC   GL1  632   0.457   5.413   8.209 -0.1859 -0.2065 -0.3958
   38POPC   G1P  633   0.449   5.504   8.103  0.3051  0.3000 -0.0309
   38POPC   G1M  634   0.508   5.530   8.267 -0.5831 -0.2204  0.0097
   38POPC   GL2  635   0.235   5.267   8.007  0.0485 -0.0576  0.0183
   38POPC   G2P  636   0.273   5.402   8.006 -0.2571  0.0303 -0.0444
   38POPC   G2M  637   0.270   5.364   8.102 -0.0297  0.5930 -0.5857
   38POPC   C1A  638   0.233   4.904   7.619  0.0944  0.1200  0.0313
   38POPC   C2A  639   0.133   4.928   7.138  0.0368 -0.3835  0.3124
   38POPC   C3A  640   0.232   4.436   7.015  0.0630  0.0467 -0.1498
   38POPC   C4A  641   0.058   4.071   7.128  0.0695 -0.1341 -0.1408
   38POPC   C1B  642   0.602   5.615   7.819  0.1913 -0.2350 -0.2343
   38POPC   C2B  643   0.494   5.365   7.446 -0.1725  0.0367 -0.3044
   38POPC   D3B  644   0.629   5.218   7.029  0.0060 -0.1661  0.2445
   38POPC   C4B  645   0.606   5.361   6.597 -0.0125  0.4209 -0.3761
   38POPC   C5B  646   0.438   5.205   6.195 -0.0537 -0.0669  0.2159
   39POPC   NC3  647   0.918   6.194   8.502 -0.2233 -0.1650  0.0840
   39POPC   PO4  648   0.470   6.473   8.467  0.0224  0.2144  0.1037
   39POPC   GL1  649   0.530   6.263   8.037  0.1871 -0.1312  0.3739
   39POPC   G1P  650   0.592   6.374   7.979 -0.0406 -0.4114 -0.4759
   39POPC   G1M  651   0.659   6.236   8.084  0.4866  0.2560 -0.1659
   39POPC   GL2  652   0.833   6.031   7.990 -0.5104 -0.2317 -0.0830
   39POPC   G2P  653   0.850   6.108   7.874 -0.7669  0.4645  0.3131
   39POPC   G2M  654   0.952   6.069   7.928 -0.4689  0.0873  0.1785
   39POPC   C1A  655   0.996   5.967   7.594 -0.0395 -0.1454 -0.0886
   39POPC   C2A  656   0.774   6.117   7.303  0.0380 -0.1181 -0.1803
   39POPC   C3A  657   0.675   6.240   6.869  0.1227  0.1196 -0.1435
   39POPC   C4A  658   0.540   6.081   6.514 -0.1807 -0.0702  0.3028
   39POPC   C1B  659   0.765   6.469   7.782  0.0456  0.0254 -0.2017
   39POPC   C2B  660   1.193   6.453   7.581 -0.2330 -0.1648  0.0802
   39POPC   D3B  661   1.592   6.643   7.340  0.0831  0.0956 -0.1179
   39POPC   C4B  662   1.698   7.030   7.529  0.0049 -0.0560  0.2316
   39POPC   C5B  663   1.945   7.168   7.816 -0.0525  0.4103 -0.2016
   40POPC   NC3  664   2.307   9.719   8.563  0.1605  0.2272 -0.0665
   40POPC   PO4  665   2.928   9.846   8.637 -0.3243  0.1670  0.1022
   40POPC   GL1  666   2.838   9.842   8.219 -0.0964  0.1333  0.3016
   40POPC   G1P  667   2.891   9.952   8.151 -0.2838  0.0552  0.0193
   40POPC   G1M  668   2.790   9.963   8.269 -0.3633  0.1470  0.0312
   40POPC   GL2  669   2.532  10.065   8.128 -0.0035 -0.1078  0.1860
   40POPC   G2P  670   2.611   9.950   8.124 -0.0164 -0.1114 -0.0490
   40POPC   G2M  671   2.668  10.037   8.146 -0.0372 -0.0119  0.6527
   40POPC   C1A  672   2.598  10.133   7.684  0.0716  0.1497  0.1585
   40POPC   C2A  673   2.454  10.186   7.223 -0.0546  0.2255  0.2346
   40POPC   C3A  674   2.408  10.623   6.941  0.1781 -0.0003 -0.2247
   40POPC   C4A  675   2.363  10.910   6.583 -0.1821  0.1756  0.0586
   40POPC   C1B  676   2.545   9.655   7.810  0.1221  0.0247 -0.0719
   40POPC   C2B  677   2.516   9.696   7.375 -0.0208  0.2162 -0.1200
   40POPC   D3B  678   2.672   9.769   6.905 -0.2632 -0.1916 -0.2718
   40POPC   C4B  679   2.360   9.695   6.714  0.0419  0.0602 -0.1434
   40POPC   C5B  680   2.079   9.829   6.343  0.2380 -0.2321 -0.2619
   41POPC   NC3  681   7.401   1.261   8.587  0.0441  0.2224  0.1678
   41POPC   PO4  682   7.881   1.159   8.730  0.0216 -0.0735 -0.0595
   41POPC   GL1  683   7.946   1.150   8.225 -0.2634 -0.2790  0.2245
   41POPC   G1P  684   7.828   1.198   8.167 -0.3557  0.2704  0.8168
   41POPC   G1M  685   7.864   1.171   8.336 -0.1143  0.2693  0.2413
   41POPC   GL2  686   8.083   1.387   8.098  0.1072 -0.1937 -0.4444
   41POPC   G2P  687   7.976   1.340   8.176 -0.0362  0.0927 -0.4609
   41POPC   G2M  688   7.961   1.444   8.136  0.1561 -0.6626  0.5909
   41POPC   C1A  689   8.220   1.255   7.654 -0.1092  0.0309 -0.2185
   41POPC   C2A  690   7.987   0.976   7.328  0.1357  0.0053  0.0380
   41POPC   C3A  691   7.823   1.109   6.837  0.1047 -0.1253 -0.1238
   41POPC   C4A  692   7.452   1.176   6.621  0.0333 -0.1029  0.1078
   41POPC   C1B  693   7.857   0.866   7.846  0.2120  0.2585 -0.2133
   41POPC   C2B  694   7.527   0.824   7.556  0.1427  0.1244 -0.0802
   41POPC   D3B  695   7.141   0.777   7.320 -0.2488  0.0834  0.0565
   41POPC   C4B  696   7.076   0.955   6.849  0.1435  0.1159  0.3545
   41POPC   C5B  697   6.962   0.695   6.568 -0.0250  0.2433  0.0211
   42POPC   NC3  698   2.599   8.913   8.862 -0.1617  0.0569 -0.2234
   42POPC   PO4  699   2.651   9.416   8.697  0.0823 -0.1642 -0.1480
   42POPC   GL1  700   2.579   9.267   8.351  0.1100 -0.0778 -0.2627
   42POPC   G1P  701   2.495   9.199   8.440  0.0601  0.0222 -0.2327
   42POPC   G1M  702   2.482   9.339   8.422  0.4793  0.0946  0.0876
   42POPC   GL2  703   2.556   8.949   8.330  0.0554  0.1576 -0.4141
   42POPC   G2P  704   2.606   8.818   8.320  0.5395  0.3070 -0.0690
   42POPC   G2M  705   2.524   8.859   8.227  0.6431 -0.1242 -0.3706
   42POPC   C1A  706   2.325   9.002   7.970  0.3271  0.2252 -0.1341
   42POPC   C2A  707   2.422   9.230   7.571 -0.0344  0.1282 -0.2721
   42POPC   C3A  708   2.891   9.350   7.524  0.3594 -0.3844  0.0571
   42POPC   C4A  709   3.070   9.710   7.733  0.2666  0.1614 -0.4194
   42POPC   C1B  710   2.792   9.201   7.946 -0.3477  0.1105 -0.1272
   42POPC   C2B  711   3.127   8.922   7.666 -0.1868  0.0235  0.1075
   42POPC   D3B  712   3.454   8.447   7.688  0.1161  0.2787 -0.1019
   42POPC   C4B  713   3.571   8.186   7.431 -0.0029  0.2153  0.2989
   42POPC   C5B  714   3.779   8.134   7.039 -0.4384 -0.1289  0.2230
   43POPC   NC3  715   9.764   7.732   9.112  0.0499 -0.2143 -0.0656
   43POPC   PO4  716   9.500   7.263   9.010  0.3302 -0.1240  0.1796
   43POPC   GL1  717   9.705   7.332   8.612  0.1258 -0.0681 -0.0427
   43POPC   G1P  718   9.803   7.421   8.658  0.1702 -0.2014  0.1258
   43POPC   G1M  719   9.761   7.234   8.694 -0.2424 -0.0189  0.2813
   43POPC   GL2  720   9.850   7.051   8.397  0.2828 -0.4683 -0.0502
   43POPC   G2P  721   9.800   6.967   8.497 -0.5654  0.1909  0.1375
   43POPC   G2M  722   9.869   6.912   8.397  0.2124 -0.4807 -0.3520
   43POPC   C1A  723   9.911   6.936   7.983  0.2090 -0.0267  0.2266
   43POPC   C2A  724  10.045   6.617   7.778  0.0082  0.0018  0.1624
   43POPC   C3A  725  10.195   6.586   7.495  0.0432 -0.0518 -0.0174
   43POPC   C4A  726  10.472   6.627   7.142  0.0976 -0.0074 -0.1064
   43POPC   C1B  727   9.598   7.380   8.122 -0.1462  0.1220  0.0678
   43POPC   C2B  728   9.343   7.584   7.921 -0.1886 -0.1802  0.0130
   43POPC   D3B  729   8.864   7.691   7.986 -0.0286  0.3311 -0.0761
   43POPC   C4B  730   8.629   7.879   7.683  0.0439 -0.2176 -0.0278
   43POPC   C5B  731   8.616   7.967   7.244 -0.4455  0.3293  0.1278
   44POPC   NC3  732   6.007   0.295   8.395 -0.2391 -0.1980 -0.2487
   44POPC   PO4  733   6.640   0.252   8.378  0.0796  0.1141 -0.4986
   44POPC   GL1  734   6.638   0.434   7.951 -0.3277  0.2328  0.4240
   44POPC   G1P  735   6.606   0.550   7.879  0.5896  0.2380 -0.0557
   44POPC   G1M  736   6.711   0.547   7.992  0.4768 -0.1447  0.1453
   44POPC   GL2  737   6.343   0.453   7.844 -0.1702 -0.1143  0.0010
   44POPC   G2P  738   6.335   0.363   7.951  0.0377  0.2726  0.3529
   44POPC   G2M  739   6.341   0.540   7.953  0.1781  0.1029 -0.1578
   44POPC   C1A  740   6.565   0.634   7.422 -0.2625  0.0508 -0.1054
   44POPC   C2A  741   6.711   1.012   7.316  0.1241 -0.2078 -0.2749
   44POPC   C3A  742   6.855   1.420   7.296  0.0507 -0.0694 -0.2140
   44POPC   C4A  743   6.803   1.779   7.549 -0.0428  0.0657 -0.0135
   44POPC   C1B  744   6.957   0.809   7.792 -0.0798 -0.1376  0.1620
   44POPC   C2B  745   7.371   0.947   8.035  0.1577  0.2579 -0.0247
   44POPC   D3B  746   7.575   1.356   8.003  0.0035  0.1367  0.1314
   44POPC   C4B  747   7.683   1.294   7.573 -0.1376  0.1570  0.2355
   44POPC   C5B  748   8.004   1.482   7.258 -0.0203 -0.0767 -0.1727
   45POPC   NC3  749   0.197   3.546   8.297 -0.1050 -0.0834 -0.2477
   45POPC   PO4  750   0.127   4.117   8.363 -0.0841  0.2178 -0.0964
   45POPC   GL1  751   0.232   4.347   8.051 -0.3137 -0.0998  0.1636
   45POPC   G1P  752   0.238   4.391   8.184 -0.0105 -0.2040  0.1889
   45POPC   G1M  753   0.204   4.299   8.179  0.0894  0.0379  0.3130
   45POPC   GL2  754   0.387   4.600   8.013  0.3417  0.1328 -0.3432
   45POPC   G2P  755   0.482   4.504   8.050  0.3108 -0.0031 -0.6085
   45POPC   G2M  756   0.506   4.641   7.951  0.5090 -0.3525 -0.3618
   45POPC   C1A  757   0.686   4.283   7.813  0.1137  0.3313  0.0211
   45POPC   C2A  758   0.852   4.334   7.387 -0.0728  0.0127 -0.0187
   45POPC   C3A  759   0.984   4.432   7.060  0.1179 -0.2267  0.1315
   45POPC   C4A  760   1.124   4.611   6.581  0.3403 -0.1479  0.0100
   45POPC   C1B  761   0.196   4.330   7.570 -0.1645  0.0643 -0.0229
   45POPC   C2B  762  12.074   4.572   7.375 -0.0891  0.0178 -0.1257
   45POPC   D3B  763  11.718   4.512   7.354 -0.0022 -0.2881  0.4144
   45POPC   C4B  764  11.507   4.444   6.991 -0.0312  0.2387  0.2578
   45POPC   C5B  765  11.568   4.078   6.703 -0.1907  0.1832 -0.0333
   46POPC   NC3  766   0.898   8.882   8.530 -0.0392  0.3195  0.1003
   46POPC   PO4  767   0.710   9.410   8.727 -0.1074  0.1306  0.3100
   46POPC   GL1  768   0.601   9.255   8.301  0.1330 -0.0826  0.2176
   46POPC   G1P  769   0.652   9.308   8.182 -0.1267  0.5351  0.3616
   46POPC   G1M  770   0.529   9.331   8.208  0.2370  0.1220  0.3021
   46POPC   GL2  771   0.286   9.059   8.199  0.0363 -0.1568 -0.0579
   46POPC   G2P  772   0.330   9.003   8.078  0.3173  0.0351 -0.0471
   46POPC   G2M  773   0.392   9.146   8.172  0.2564 -0.2966  0.3291
   46POPC   C1A  774   0.084   8.651   7.981  0.1295 -0.0897  0.1752
   46POPC   C2A  775   0.010   8.403   7.668 -0.4693  0.2151  0.3175
   46POPC   C3A  776  11.893   8.364   7.230 -0.1480 -0.1551 -0.0387
   46POPC   C4A  777  11.527   8.424   6.961  0.0218 -0.0296 -0.0462
   46POPC   C1B  778   0.702   9.452   7.897  0.0581 -0.2059 -0.0904
   46POPC   C2B  779   0.550   9.709   7.580 -0.0276  0.0548 -0.0335
   46POPC   D3B  780   0.505   9.756   7.187 -0.2103  0.1700  0.1587
   46POPC   C4B  781   0.875   9.948   6.914  0.1793 -0.0462  0.0744
   46POPC   C5B  782   1.228   9.870   6.767  0.0356 -0.0515 -0.2227
   47POPC   NC3  783   3.758   2.669   8.671  0.1299  0.1169  0.1826
   47POPC   PO4  784   3.315   3.048   8.818 -0.0346  0.1283 -0.1376
   47POPC   GL1  785   3.277   2.929   8.407 -0.1994 -0.2615 -0.2318
   47POPC   G1P  786   3.352   2.952   8.291 -0.1603 -0.0574 -0.1674
   47POPC   G1M  787   3.405   2.898   8.454 -0.0612  0.2927 -0.2129
   47POPC   GL2  788   3.547   2.817   8.201  0.2204 -0.2908 -0.2158
   47POPC   G2P  789   3.416   2.781   8.167  0.1338 -0.0184 -0.1886
   47POPC   G2M  790   3.498   2.827   8.332 -0.2939 -0.2082 -0.4009
   47POPC   C1A  791   3.280   3.107   7.890  0.0935 -0.2189 -0.0834
   47POPC   C2A  792   3.439   3.463   7.697  0.0746  0.0066  0.1080
   47POPC   C3A  793   3.681   3.711   7.271 -0.1101 -0.1059 -0.2871
   47POPC   C4A  794   3.832   4.220   7.233  0.3584 -0.0804  0.1791
   47POPC   C1B  795   2.865   2.840   8.016  0.0053  0.0924  0.0663
   47POPC   C2B  796   2.734   2.499   7.636  0.1416 -0.0038 -0.0362
   47POPC   D3B  797   2.829   2.130   7.472 -0.0951  0.0200 -0.3069
   47POPC   C4B  798   3.109   2.156   7.144 -0.0670 -0.0126  0.1930
   47POPC   C5B  799   3.305   2.246   6.716  0.0519  0.2225  0.1355
   48POPC   NC3  800   0.202   6.031   8.674  0.0852 -0.0869  0.0431
   48POPC   PO4  801  12.063   5.449   8.465 -0.0210  0.2206  0.0604
   48POPC   GL1  802  11.836   5.438   8.128  0.1680 -0.2249  0.4781
   48POPC   G1P  803  11.811   5.489   8.256  0.4220  0.0636  0.4195
   48POPC   G1M  804  11.735   5.374   8.201  0.0587 -0.5448  0.0610
   48POPC   GL2  805  11.591   5.695   8.013 -0.3543  0.3068  0.2073
   48POPC   G2P  806  11.710   5.697   8.087  0.0536 -0.2656 -0.3746
   48POPC   G2M  807  11.662   5.808   8.055 -0.2156  0.1810  0.3206
   48POPC   C1A  808  11.357   5.891   7.672 -0.1907  0.1117 -0.0367
   48POPC   C2A  809  11.295   5.732   7.221  0.2581 -0.0085  0.2460
   48POPC   C3A  810  10.972   5.953   7.073  0.3338  0.1594  0.1094
   48POPC   C4A  811  10.828   6.329   6.889  0.3005  0.0285 -0.1029
   48POPC   C1B  812  11.512   5.148   7.846  0.1382 -0.0991  0.0268
   48POPC   C2B  813  11.468   4.755   7.720  0.0594  0.4430 -0.0953
   48POPC   D3B  814  11.424   4.397   8.011  0.0717 -0.0232 -0.0311
   48POPC   C4B  815  11.511   4.046   7.780  0.2576 -0.3729 -0.1148
   48POPC   C5B  816  11.330   3.703   7.515  0.1017 -0.1932  0.0600
   49POPC   NC3  817  10.066   5.239   8.728 -0.2001  0.1512  0.2141
   49POPC   PO4  818  10.590   5.465   8.724 -0.4054 -0.0501 -0.0917
   49POPC   GL1  819  10.356   5.400   8.347 -0.0027  0.2470  0.3282
   49POPC   G1P  820  10.296   5.276   8.369  0.0979  0.1011 -0.1798
   49POPC   G1M  821  10.414   5.278   8.381  0.2367  0.2155 -0.1562
   49POPC   GL2  822  10.165   5.670   8.269 -0.2341 -0.2219  0.2988
   49POPC   G2P  823  10.267   5.685   8.364  0.4156  0.4283 -0.4253
   49POPC   G2M  824  10.098   5.650   8.390  0.0368  0.0020  0.4935
   49POPC   C1A  825   9.939   5.634   7.903  0.1458  0.2736 -0.2284
   49POPC   C2A  826   9.621   5.892   7.711  0.1334  0.0171 -0.0065
   49POPC   C3A  827   9.424   6.070   7.435 -0.0538 -0.3342  0.0512
   49POPC   C4A  828   9.285   6.511   7.443 -0.1877  0.1627 -0.0283
   49POPC   C1B  829  10.364   5.113   7.947  0.1604  0.3252  0.3036
   49POPC   C2B  830   9.969   5.149   7.743 -0.1193 -0.3039  0.2316
   49POPC   D3B  831   9.634   4.846   7.683  0.1297 -0.2112 -0.1781
   49POPC   C4B  832   9.693   4.419   7.540  0.0413  0.1057 -0.2057
   49POPC   C5B  833   9.429   4.070   7.483  0.0113  0.1421 -0.2369
   50POPC   NC3  834   3.999   8.592   9.107  0.0138  0.2454  0.2396
   50POPC   PO4  835   3.531   8.665   8.796  0.1782 -0.0829  0.3122
   50POPC   GL1  836   3.380   8.291   8.524  0.0598 -0.3808 -0.1397
   50POPC   G1P  837   3.308   8.192   8.592 -0.1619  0.1001  0.3759
   50POPC   G1M  838   3.317   8.357   8.631  0.3413  0.6844 -0.5630
   50POPC   GL2  839   3.500   8.261   8.205  0.1642 -0.0002 -0.4369
   50POPC   G2P  840   3.410   8.223   8.305  0.3652  0.3147 -0.1242
   50POPC   G2M  841   3.559   8.180   8.303 -0.0844  0.2468 -0.0730
   50POPC   C1A  842   3.360   8.615   8.108  0.1933  0.0378  0.3193
   50POPC   C2A  843   3.284   9.024   8.166 -0.2979 -0.1092  0.2524
   50POPC   C3A  844   3.393   9.480   7.979  0.0275  0.0019 -0.1635
   50POPC   C4A  845   3.816   9.675   7.792  0.1299  0.0379  0.0934
   50POPC   C1B  846   3.005   8.317   8.319 -0.1625  0.0839 -0.2881
   50POPC   C2B  847   2.744   8.098   8.126  0.1103  0.0900  0.0115
   50POPC   D3B  848   2.576   8.010   7.773 -0.3094 -0.2537 -0.0358
   50POPC   C4B  849   2.615   8.375   7.358  0.3069 -0.1235  0.0529
   50POPC   C5B  850   2.433   8.252   6.982 -0.1348  0.3359 -0.2173
   51POPC   NC3  851   0.011   8.912   8.926 -0.0269  0.0049 -0.0326
   51POPC   PO4  852  11.554   8.802   9.010  0.1252  0.1217 -0.1139
   51POPC   GL1  853  11.465   8.714   8.526  0.2366  0.1228  0.1536
   51POPC   G1P  854  11.587   8.748   8.467  0.2009 -0.0686 -0.0385
   51POPC   G1M  855  11.573   8.658   8.458  0.1807  0.1121  0.0739
   51POPC   GL2  856  11.499   8.468   8.399 -0.2584  0.0357  0.2546
   51POPC   G2P  857  11.405   8.540   8.325  0.2944  0.1970 -0.3345
   51POPC   G2M  858  11.448   8.558   8.493 -0.1429 -0.1150  0.4648
   51POPC   C1A  859  11.653   8.464   7.864 -0.1596  0.0979 -0.5469
   51POPC   C2A  860  11.399   8.719   7.534 -0.0691 -0.0471 -0.0489
   51POPC   C3A  861  11.234   9.021   7.248  0.0565 -0.2146 -0.0981
   51POPC   C4A  862  11.446   9.222   6.928 -0.0874 -0.1092  0.0599
   51POPC   C1B  863  11.251   8.851   8.113  0.1708  0.0702 -0.1332
   51POPC   C2B  864  10.986   8.946   7.691  0.2291 -0.1246 -0.0727
   51POPC   D3B  865  10.715   9.013   7.400 -0.1863  0.3476  0.3322
   51POPC   C4B  866  10.601   8.765   7.017  0.3515 -0.3161  0.3282
   51POPC   C5B  867  10.613   8.371   6.726 -0.0400  0.4164  0.1388
   52POPC   NC3  868   6.212   8.116   8.482 -0.1253  0.3988 -0.0340
   52POPC   PO4  869   6.690   7.874   8.366 -0.1206 -0.1751  0.1826
   52POPC   GL1  870   6.924   7.720   8.060 -0.1160  0.1062  0.3392
   52POPC   G1P  871   6.821   7.768   7.979 -0.2030 -0.3111  0.1872
   52POPC   G1M  872   6.850   7.769   8.169 -0.1844  0.5984  0.0854
   52POPC   GL2  873   6.856   7.338   7.977  0.0085  0.1241  0.1838
   52POPC   G2P  874   6.976   7.411   7.984 -0.0586  0.2320  0.2295
   52POPC   G2M  875   6.961   7.256   7.935  0.3899  0.6374  0.0901
   52POPC   C1A  876   7.038   7.218   7.599  0.3358  0.2328  0.0614
   52POPC   C2A  877   7.358   7.314   7.355 -0.1262 -0.1506  0.3852
   52POPC   C3A  878   7.585   7.597   7.104  0.0230 -0.4278  0.1758
   52POPC   C4A  879   7.745   7.844   6.718 -0.1452  0.0803 -0.1647
   52POPC   C1B  880   6.838   7.880   7.616 -0.2921  0.0601  0.0065
   52POPC   C2B  881   6.460   7.984   7.220 -0.2536  0.1085  0.2627
   52POPC   D3B  882   5.977   7.863   7.079  0.2717 -0.0773  0.1870
   52POPC   C4B  883   5.821   7.468   7.064  0.0484 -0.3092 -0.1249
   52POPC   C5B  884   5.455   7.224   7.070 -0.2922  0.3147 -0.1812
   53POPC   NC3  885  10.537  12.027   8.736 -0.0620 -0.0810 -0.1027
   53POPC   PO4  886  10.757   0.343   8.734  0.0763  0.0872 -0.0110
   53POPC   GL1  887  10.814   0.558   8.286 -0.1339 -0.0781 -0.2820
   53POPC   G1P  888  10.844   0.637   8.174  0.0878  0.0807 -0.1138
   53POPC   G1M  889  10.758   0.684   8.313  0.5285  0.1655  0.0521
   53POPC   GL2  890  11.179   0.787   8.264 -0.5689  0.0568 -0.4637
   53POPC   G2P  891  11.265   0.834   8.165 -0.1481  0.3092 -0.0042
   53POPC   G2M  892  11.255   0.669   8.261  0.0366  0.4041 -0.0192
   53POPC   C1A  893  11.594   0.845   7.905 -0.1326  0.2338  0.0630
   53POPC   C2A  894  11.871   0.687   7.630 -0.2311  0.2012 -0.2801
   53POPC   C3A  895  11.823   0.862   7.169  0.0289  0.2614 -0.1451
   53POPC   C4A  896  11.407   1.040   6.900  0.0266 -0.0641 -0.0646
   53POPC   C1B  897  10.815   0.796   7.879 -0.1460 -0.2022  0.0446
   53POPC   C2B  898  10.454   0.727   7.582 -0.0714 -0.0486  0.1706
   53POPC   D3B  899  10.303   1.027   7.249 -0.0284  0.0885 -0.1488
   53POPC   C4B  900  10.324   0.906   6.853 -0.0420  0.2198 -0.3735
   53POPC   C5B  901  10.629   0.748   6.520 -0.2177  0.2126  0.0932
   54POPC   NC3  902   8.980   2.599   9.124 -0.0960 -0.0672  0.1025
   54POPC   PO4  903   8.947   2.430   8.589  0.0198 -0.0774  0.0493
   54POPC   GL1  904   9.145   2.483   8.086  0.0645  0.1128  0.0951
   54POPC   G1P  905   9.017   2.480   8.143  0.0657  0.3785  0.1157
   54POPC   G1M  906   9.066   2.558   8.174  0.2109 -0.1318  0.4466
   54POPC   GL2  907   9.535   2.577   8.234  0.0825  0.1955  0.0551
   54POPC   G2P  908   9.438   2.544   8.329  0.4999 -0.2796  0.3372
   54POPC   G2M  909   9.545   2.670   8.339 -0.0506  0.2541  0.0180
   54POPC   C1A  910   9.934   2.605   8.041 -0.2873 -0.1618  0.1164
   54POPC   C2A  911   9.983   2.583   7.578  0.0707  0.0576 -0.3227
   54POPC   C3A  912  10.290   2.827   7.273  0.1122  0.1653 -0.0867
   54POPC   C4A  913  10.506   3.160   7.076 -0.1686 -0.0572 -0.2098
   54POPC   C1B  914   8.919   2.165   7.836  0.1171 -0.2039  0.4495
   54POPC   C2B  915   8.740   2.186   7.381  0.1317  0.4466  0.3501
   54POPC   D3B  916   8.517   2.382   7.039 -0.0274 -0.3734  0.0938
   54POPC   C4B  917   8.011   2.467   7.074 -0.0303  0.2429  0.2029
   54POPC   C5B  918   7.706   2.556   7.402  0.0684 -0.0774 -0.1295
   55POPC   NC3  919   4.502   4.298   9.114  0.1757  0.0665 -0.2067
   55POPC   PO4  920   4.642   4.546   8.581  0.0463 -0.3077 -0.0006
   55POPC   GL1  921   4.808   4.575   8.224 -0.3083 -0.6533  0.5061
   55POPC   G1P  922   4.877   4.595   8.343  0.2328 -0.0466  0.1208
   55POPC   G1M  923   4.756   4.676   8.305 -0.1309  0.1395 -0.2888
   55POPC   GL2  924   4.739   4.877   8.045 -0.2920 -0.3461  0.1222
   55POPC   G2P  925   4.610   4.878   7.990 -0.2717  0.2111  0.0539
   55POPC   G2M  926   4.750   4.763   7.963 -0.0641 -0.0601 -0.2663
   55POPC   C1A  927   4.737   5.037   7.580  0.0824  0.0913  0.0343
   55POPC   C2A  928   4.521   5.265   7.260 -0.0512  0.0946 -0.1644
   55POPC   C3A  929   4.191   5.527   7.054 -0.1527  0.2630 -0.1235
   55POPC   C4A  930   3.861   5.511   6.782  0.3694  0.2031  0.4046
   55POPC   C1B  931   5.015   4.624   7.802 -0.1125  0.0206 -0.0709
   55POPC   C2B  932   4.960   4.582   7.429 -0.0722  0.0340 -0.1470
   55POPC   D3B  933   5.015   4.405   7.033 -0.1704  0.0107  0.0066
   55POPC   C4B  934   5.375   4.365   6.797  0.1668  0.0272 -0.1483
   55POPC   C5B  935   5.535   4.005   6.772 -0.2276  0.1012  0.1809
   56POPC   NC3  936   0.663   7.307   8.774 -0.1410  0.0880  0.2589
   56POPC   PO4  937   1.042   7.761   8.761 -0.2435  0.0682  0.1642
   56POPC   GL1  938   1.091   7.727   8.338 -0.5018  0.3309  0.2586
   56POPC   G1P  939   0.995   7.693   8.243 -0.0789 -0.0473 -0.0565
   56POPC   G1M  940   1.101   7.604   8.405  0.3410  0.3845  0.2940
   56POPC   GL2  941   0.793   7.542   8.351  0.2241  0.3541 -0.0032
   56POPC   G2P  942   0.740   7.525   8.223  0.5407 -0.3638 -0.0611
   56POPC   G2M  943   0.815   7.407   8.320 -0.2698  0.3439 -0.3721
   56POPC   C1A  944   0.722   7.749   7.985 -0.1764 -0.3180  0.0248
   56POPC   C2A  945   0.427   7.680   7.657 -0.2339 -0.0126  0.3054
   56POPC   C3A  946   0.106   7.874   7.455 -0.1226  0.0069  0.1495
   56POPC   C4A  947   0.213   8.271   7.150 -0.0586  0.2374  0.1254
   56POPC   C1B  948   1.205   7.730   7.944 -0.2684  0.0802  0.1472
   56POPC   C2B  949   1.360   7.963   7.667  0.0856  0.2150  0.0330
   56POPC   D3B  950   1.760   7.866   7.532 -0.2562 -0.0480 -0.6014
   56POPC   C4B  951   1.925   8.153   7.360 -0.0938  0.1501  0.3499
   56POPC   C5B  952   2.124   8.447   7.538 -0.2220  0.2541 -0.0317
   57POPC   NC3  953   2.449   6.613   8.896 -0.1555  0.1263  0.0037
   57POPC   PO4  954   3.012   6.497   8.682  0.0354 -0.0893  0.0876
   57POPC   GL1  955   3.174   6.479   8.190  0.3104 -0.2576  0.3492
   57POPC   G1P  956   3.217   6.383   8.098  0.4153  0.3430 -0.2714
   57POPC   G1M  957   3.118   6.352   8.177 -0.4996  0.1292 -0.7363
   57POPC   GL2  958   3.519   6.645   8.019 -0.0739  0.4049 -0.2365
   57POPC   G2P  959   3.570   6.745   8.103 -0.4046  0.2786  0.1276
   57POPC   G2M  960   3.583   6.765   7.984  0.0895  0.4962  0.3276
   57POPC   C1A  961   3.386   6.697   7.586 -0.0814  0.1761  0.2380
   57POPC   C2A  962   3.262   6.661   7.163  0.2642  0.0186 -0.0784
   57POPC   C3A  963   2.996   6.688   6.757  0.2601 -0.2569  0.2964
   57POPC   C4A  964   2.890   6.483   6.437 -0.2571  0.2265 -0.2404
   57POPC   C1B  965   3.204   6.306   7.836 -0.0337  0.1613 -0.2158
   57POPC   C2B  966   3.057   6.288   7.386 -0.3432  0.3453  0.2154
   57POPC   D3B  967   3.194   6.196   6.896  0.1320  0.1116  0.0488
   57POPC   C4B  968   3.284   5.713   6.867 -0.0052  0.3400  0.0305
   57POPC   C5B  969   3.429   5.445   7.137 -0.0910 -0.1072 -0.0263
   58POPC   NC3  970   5.310   1.450   8.503 -0.0698 -0.1843 -0.1171
   58POPC   PO4  971   4.974   1.909   8.180  0.3314  0.0020 -0.3728
   58POPC   GL1  972   4.994   1.883   7.660  0.3742 -0.1955  0.1128
   58POPC   G1P  973   5.113   1.829   7.711  0.2533 -0.3910  0.1912
   58POPC   G1M  974   5.010   1.747   7.689  0.7814 -0.2101 -0.1366
   58POPC   GL2  975   4.870   2.234   7.608 -0.1256 -0.2277 -0.3811
   58POPC   G2P  976   4.939   2.134   7.679 -0.1933 -0.1838 -0.2511
   58POPC   G2M  977   4.994   2.220   7.543  0.2508  0.1034  0.2154
   58POPC   C1A  978   4.907   2.679   7.440 -0.0590 -0.2670  0.2717
   58POPC   C2A  979   4.922   2.948   7.082  0.1232 -0.2872  0.0597
   58POPC   C3A  980   4.983   3.201   6.750  0.2487  0.6353 -0.0117
   58POPC   C4A  981   5.302   3.513   6.564  0.2593  0.0757  0.1688
   58POPC   C1B  982   5.238   2.207   7.324 -0.1498  0.2016 -0.0258
   58POPC   C2B  983   5.263   2.486   6.927 -0.2889 -0.3124  0.1066
   58POPC   D3B  984   5.357   2.510   6.523 -0.2085  0.2988 -0.1085
   58POPC   C4B  985   5.145   2.907   6.228  0.1117  0.0391 -0.1818
   58POPC   C5B  986   4.810   3.237   6.265  0.4343  0.1598 -0.2672
   59POPC   NC3  987   3.583   3.327   9.141 -0.2248  0.2622 -0.1133
   59POPC   PO4  988   3.731   3.603   8.710  0.0058  0.1971  0.1237
   59POPC   GL1  989   3.735   3.592   8.299  0.0569 -0.2064 -0.3108
   59POPC   G1P  990   3.689   3.711   8.241  0.0047 -0.0591  0.0207
   59POPC   G1M  991   3.608   3.539   8.322  0.1724 -0.2041  0.4658
   59POPC   GL2  992   3.738   3.860   8.110  0.0495 -0.0195 -0.3280
   59POPC   G2P  993   3.851   3.854   8.192 -0.0285 -0.3086 -0.2353
   59POPC   G2M  994   3.808   3.973   8.064 -0.6095  0.5321 -0.0726
   59POPC   C1A  995   3.477   4.229   8.138 -0.1696 -0.1270 -0.2051
   59POPC   C2A  996   3.062   4.377   8.064  0.1837 -0.1513  0.3431
   59POPC   C3A  997   2.692   4.363   7.881  0.0657 -0.2213 -0.3113
   59POPC   C4A  998   2.363   4.063   7.929  0.1402 -0.1739 -0.0924
   59POPC   C1B  999   4.190   3.613   8.123 -0.0406 -0.1653  0.0363
   59POPC   C2B 1000   4.654   3.658   7.991  0.2348  0.4537  0.0563
   59POPC   D3B 1001   5.079   3.717   7.758  0.1115 -0.0337  0.1336
   59POPC   C4B 1002   5.339   3.548   7.580 -0.1276 -0.0636 -0.3821
   59POPC   C5B 1003   5.662   3.203   7.649 -0.0797 -0.0845 -0.1390
   60POPC   NC3 1004   9.108   2.871   8.436  0.3359 -0.0641  0.2033
   60POPC   PO4 1005   8.621   3.285   8.502 -0.0660  0.0080  0.1508
   60POPC   GL1 1006   8.806   3.124   8.118  0.0114  0.3431  0.2288
   60POPC   G1P 1007   8.840   3.256   8.150  0.2917  0.2310  0.4229
   60POPC   G1M 1008   8.907   3.186   8.193  0.2151  0.3228 -0.0208
   60POPC   GL2 1009   8.562   3.292   8.029 -0.4015 -0.0765  0.1875
   60POPC   G2P 1010   8.533   3.201   8.132  0.0691 -0.2027  0.2169
   60POPC   G2M 1011   8.482   3.382   8.101 -0.4191 -0.1849  0.3038
   60POPC   C1A 1012   8.347   3.599   7.725 -0.4139  0.0412  0.0656
   60POPC   C2A 1013   8.348   3.798   7.407  0.0250 -0.0900  0.1444
   60POPC   C3A 1014   8.264   3.918   6.937 -0.2643 -0.0404  0.1281
   60POPC   C4A 1015   8.411   3.799   6.573 -0.1444  0.1917 -0.1541
   60POPC   C1B 1016   8.895   3.072   7.633 -0.1178  0.0936 -0.0401
   60POPC   C2B 1017   8.596   2.716   7.588  0.0743 -0.1612 -0.0664
   60POPC   D3B 1018   8.447   2.346   7.754  0.0529 -0.1112  0.1836
   60POPC   C4B 1019   8.053   2.199   7.602 -0.0710 -0.1095 -0.1823
   60POPC   C5B 1020   7.885   1.797   7.860  0.2538 -0.1108  0.2102
   61POPC   NC3 1021   1.298   4.801   8.957 -0.0523 -0.0376 -0.1478
   61POPC   PO4 1022   1.396   4.879   8.431  0.1724  0.0870 -0.0773
   61POPC   GL1 1023   0.964   4.991   8.248 -0.1582  0.3263  0.1730
   61POPC   G1P 1024   0.925   5.101   8.325 -0.2257  0.4684 -0.0597
   61POPC   G1M 1025   1.068   4.987   8.343 -0.1283  0.0020  0.1314
   61POPC   GL2 1026   0.857   4.672   8.119 -0.1269  0.1299 -0.0486
   61POPC   G2P 1027   0.972   4.719   8.056  0.3515 -0.5165  0.2825
   61POPC   G2M 1028   0.872   4.810   8.105  0.4896  0.1497  0.5883
   61POPC   C1A 1029   0.780   4.745   7.714 -0.1231 -0.1507 -0.0479
   61POPC   C2A 1030   0.689   4.832   7.316  0.1093 -0.0877  0.0461
   61POPC   C3A 1031   0.627   4.766   6.869 -0.1323 -0.2027  0.2818
   61POPC   C4A 1032   0.247   4.829   6.650 -0.1402 -0.0957  0.0232
   61POPC   C1B 1033   0.921   5.178   7.936 -0.2168 -0.2081 -0.2366
   61POPC   C2B 1034   1.094   5.518   7.822  0.1351  0.0304 -0.1545
   61POPC   D3B 1035   1.379   5.890   7.889 -0.2995  0.1241  0.0041
   61POPC   C4B 1036   1.498   6.081   7.510  0.1586 -0.0764 -0.2203
   61POPC   C5B 1037   1.859   6.279   7.384 -0.0438  0.0024  0.0352
   62POPC   NC3 1038   5.650   9.404   8.807  0.2126  0.2750  0.3825
   62POPC   PO4 1039   5.195   9.595   8.531 -0.0185  0.0179  0.0775
   62POPC   GL1 1040   5.132   9.729   8.079  0.1900 -0.2050  0.2172
   62POPC   G1P 1041   5.198   9.751   7.958  0.3503 -0.1397  0.3144
   62POPC   G1M 1042   5.223   9.819   8.136  0.4381  0.0356 -0.5098
   62POPC   GL2 1043   5.330  10.032   8.046 -0.2032 -0.4468  0.0111
   62POPC   G2P 1044   5.367  10.017   8.180  0.4268 -0.0589 -0.0967
   62POPC   G2M 1045   5.198   9.991   8.071 -0.1569 -0.3655  0.4246
   62POPC   C1A 1046   5.346  10.238   7.641  0.0974  0.0134 -0.3106
   62POPC   C2A 1047   5.406  10.485   7.227  0.2453 -0.2822 -0.0412
   62POPC   C3A 1048   5.789  10.763   7.111  0.2067  0.3038  0.0657
   62POPC   C4A 1049   6.041  10.922   7.418  0.1109 -0.0637  0.1692
   62POPC   C1B 1050   4.934   9.887   7.794  0.0469  0.2597 -0.0656
   62POPC   C2B 1051   4.729  10.312   7.811  0.0586  0.0840 -0.0896
   62POPC   D3B 1052   4.915  10.731   7.689  0.0014 -0.1249 -0.0748
   62POPC   C4B 1053   5.304  10.836   7.529 -0.0257 -0.3422  0.0244
   62POPC   C5B 1054   5.547  11.126   7.329 -0.1747 -0.0237 -0.1631
   63POPC   NC3 1055   9.286   0.998   8.551  0.1036  0.1458 -0.2260
   63POPC   PO4 1056   9.384   0.424   8.596  0.1859  0.0534 -0.1369
   63POPC   GL1 1057   9.328   0.566   8.132 -0.1643  0.3303  0.3200
   63POPC   G1P 1058   9.448   0.631   8.160 -0.1724  0.4122  0.1704
   63POPC   G1M 1059   9.372   0.590   8.263 -0.0939 -0.4008  0.4488
   63POPC   GL2 1060   9.661   0.496   7.909 -0.1290  0.2817 -0.1446
   63POPC   G2P 1061   9.546   0.570   7.937  0.0370  0.5964 -0.2734
   63POPC   G2M 1062   9.572   0.500   7.802  0.0219  0.2812 -0.2712
   63POPC   C1A 1063   9.688   0.161   7.614 -0.0009  0.0560  0.0089
   63POPC   C2A 1064   9.619   0.160   7.072 -0.1149  0.2089  0.2852
   63POPC   C3A 1065   9.157   0.176   7.007 -0.0238 -0.0547 -0.0906
   63POPC   C4A 1066   8.866   0.037   6.799 -0.2045 -0.2969 -0.3032
   63POPC   C1B 1067   9.146   0.289   7.898 -0.1419  0.2177  0.0033
   63POPC   C2B 1068   9.230   0.123   7.542 -0.0886  0.0792  0.3324
   63POPC   D3B 1069   9.484  11.920   7.362  0.0737  0.4263 -0.0281
   63POPC   C4B 1070   9.931  11.924   7.414 -0.2663 -0.0879 -0.0570
   63POPC   C5B 1071  10.308  11.993   7.566 -0.1778 -0.1783 -0.1112
   64POPC   NC3 1072   8.507   4.200   8.372  0.0876 -0.3753  0.2558
   64POPC   PO4 1073   8.879   4.217   8.778  0.3059 -0.2194  0.1093
   64POPC   GL1 1074   9.075   4.072   8.329 -0.2269  0.1648 -0.3893
   64POPC   G1P 1075   9.190   4.124   8.268  0.1895 -0.4082 -0.1320
   64POPC   G1M 1076   9.076   4.212   8.328  0.1365  0.1832  0.1431
   64POPC   GL2 1077   8.866   4.066   8.091 -0.1216 -0.1438 -0.0658
   64POPC   G2P 1078   8.911   4.199   8.087  0.4077 -0.2992  0.2440
   64POPC   G2M 1079   8.741   4.128   8.087  0.0547  0.2254 -0.0703
   64POPC   C1A 1080   8.458   4.087   7.876  0.1189 -0.2661  0.1962
   64POPC   C2A 1081   8.001   4.111   7.634 -0.1531  0.0453 -0.0174
   64POPC   C3A 1082   7.777   3.919   7.269 -0.1371 -0.0012 -0.0085
   64POPC   C4A 1083   7.532   3.500   7.107 -0.3683  0.0170 -0.3534
   64POPC   C1B 1084   9.302   3.823   8.101 -0.0766  0.0564 -0.1040
   64POPC   C2B 1085   9.596   3.872   7.894 -0.0066 -0.0288 -0.0849
   64POPC   D3B 1086   9.984   4.036   7.639 -0.0572 -0.0771  0.0984
   64POPC   C4B 1087   9.911   3.962   7.196 -0.0841 -0.2700  0.0510
   64POPC   C5B 1088   9.648   3.785   6.894  0.0095  0.3757  0.0461
   65POPC   NC3 1089   4.422   2.497   8.374 -0.2377  0.1276 -0.0125
   65POPC   PO4 1090   4.208   2.851   8.714 -0.1444  0.0503  0.0036
   65POPC   GL1 1091   4.400   2.991   8.290 -0.1517 -0.2323  0.1221
   65POPC   G1P 1092   4.510   3.075   8.311 -0.2191 -0.1951  0.3434
   65POPC   G1M 1093   4.344   3.006   8.417 -0.0113 -0.1156  0.1715
   65POPC   GL2 1094   4.069   3.115   8.062  0.3953  0.3313  0.2879
   65POPC   G2P 1095   4.013   3.128   8.189  0.2266  0.3267  0.2151
   65POPC   G2M 1096   4.144   3.028   8.143  0.5777  0.2055 -0.0069
   65POPC   C1A 1097   3.843   2.967   7.776 -0.1530 -0.1971  0.0938
   65POPC   C2A 1098   3.808   2.928   7.344 -0.1148  0.1308  0.2702
   65POPC   C3A 1099   4.043   2.582   7.114 -0.2128 -0.1715 -0.1338
   65POPC   C4A 1100   4.199   2.072   6.978  0.2270  0.1915  0.0026
   65POPC   C1B 1101   4.511   3.180   7.984 -0.0338  0.0399  0.1688
   65POPC   C2B 1102   4.641   3.228   7.553 -0.1227 -0.0558  0.1082
   65POPC   D3B 1103   4.929   3.410   7.292  0.1054  0.1443 -0.0627
   65POPC   C4B 1104   5.320   3.401   7.082 -0.0430 -0.0485  0.1539
   65POPC   C5B 1105   5.703   3.532   6.849 -0.0557  0.0065 -0.1354
   66POPC   NC3 1106   7.138   1.858   9.375  0.0654 -0.1011 -0.0505
   66POPC   PO4 1107   7.164   1.534   8.879  0.0721  0.0354  0.1223
   66POPC   GL1 1108   7.171   1.692   8.400  0.2090  0.1292  0.3669
   66POPC   G1P 1109   7.056   1.619   8.368  0.3101  0.0120  0.2635
   66POPC   G1M 1110   7.125   1.610   8.504 -0.1153 -0.3075 -0.0929
   66POPC   GL2 1111   7.106   1.464   8.094 -0.4253 -0.0106  0.3616
   66POPC   G2P 1112   7.177   1.356   8.040  0.0679  0.4131  0.1157
   66POPC   G2M 1113   7.205   1.433   8.187 -0.2329  0.0762  0.1906
   66POPC   C1A 1114   7.230   1.681   7.714  0.2804 -0.0447 -0.0511
   66POPC   C2A 1115   7.292   1.720   7.375  0.1098 -0.1148  0.0166
   66POPC   C3A 1116   7.574   1.712   6.921 -0.2532 -0.1836  0.1209
   66POPC   C4A 1117   7.922   1.531   6.672  0.1423  0.1698 -0.2372
   66POPC   C1B 1118   7.445   1.964   8.090  0.0907 -0.0698 -0.0968
   66POPC   C2B 1119   7.767   2.262   7.983 -0.0196 -0.1766  0.1561
   66POPC   D3B 1120   8.046   2.670   7.770  0.0325 -0.4386 -0.3006
   66POPC   C4B 1121   8.083   3.108   7.786 -0.0510 -0.0820 -0.0989
   66POPC   C5B 1122   8.010   3.401   7.352  0.0290 -0.2308  0.1481
   67POPC   NC3 1123   5.318   9.274   8.240 -0.0120 -0.0200 -0.0043
   67POPC   PO4 1124   5.826   9.515   8.366 -0.0974 -0.1043 -0.5102
   67POPC   GL1 1125   5.716   9.723   8.017  0.0761 -0.2743 -0.2281
   67POPC   G1P 1126   5.727   9.765   7.884 -0.0132  0.2302 -0.0884
   67POPC   G1M 1127   5.855   9.733   8.028  0.0193  0.3823  0.1253
   67POPC   GL2 1128   5.834  10.079   7.986 -0.1363  0.4328  0.1844
   67POPC   G2P 1129   5.889  10.116   8.110  0.3686 -0.2193  0.1845
   67POPC   G2M 1130   5.960  10.087   7.926 -0.1301 -0.5435 -0.0095
   67POPC   C1A 1131   6.003   9.901   7.658 -0.0544 -0.1961 -0.2577
   67POPC   C2A 1132   6.207   9.860   7.227  0.0645 -0.0948 -0.1681
   67POPC   C3A 1133   6.052   9.908   6.814  0.1481  0.0623 -0.2104
   67POPC   C4A 1134   6.012  10.295   6.494 -0.0667  0.1114  0.1668
   67POPC   C1B 1135   5.486   9.721   7.654  0.0318 -0.0905  0.4008
   67POPC   C2B 1136   5.165   9.851   7.376 -0.0128 -0.1919 -0.1279
   67POPC   D3B 1137   5.131   9.785   6.996  0.2421  0.1821  0.0279
   67POPC   C4B 1138   5.103   9.472   6.849  0.2427  0.1641 -0.0470
   67POPC   C5B 1139   4.836   9.106   6.903  0.4596  0.1786  0.3208
   68POPC   NC3 1140   3.920   6.843   8.829  0.2063  0.0745  0.0316
   68POPC   PO4 1141   3.742   6.573   8.413 -0.2133  0.0679 -0.0445
   68POPC   GL1 1142   3.979   6.472   8.058  0.2076  0.0010 -0.0882
   68POPC   G1P 1143   4.105   6.412   8.046  0.1812 -0.0204 -0.2704
   68POPC   G1M 1144   4.022   6.439   8.187 -0.0020 -0.0600 -0.0335
   68POPC   GL2 1145   4.035   6.128   7.973 -0.2798 -0.0053  0.0005
   68POPC   G2P 1146   4.135   6.063   7.900 -0.1971 -0.0337  0.1370
   68POPC   G2M 1147   4.076   6.261   7.981 -0.2370 -0.0094 -0.1337
   68POPC   C1A 1148   4.131   6.294   7.608  0.0237  0.0150  0.2845
   68POPC   C2A 1149   4.171   6.319   7.189  0.0636  0.0509  0.2792
   68POPC   C3A 1150   4.253   6.411   6.771  0.2937 -0.0885 -0.2295
   68POPC   C4A 1151   4.563   6.469   6.375 -0.1762 -0.2203 -0.2124
   68POPC   C1B 1152   4.428   6.571   7.995 -0.2031 -0.1891  0.3727
   68POPC   C2B 1153   4.768   6.825   7.792 -0.1488 -0.0532 -0.0304
   68POPC   D3B 1154   4.774   7.255   7.590  0.5284  0.0421  0.0395
   68POPC   C4B 1155   4.400   7.316   7.364  0.2166  0.0275  0.3624
   68POPC   C5B 1156   4.119   7.084   7.039  0.2631 -0.1599  0.0293
   69POPC   NC3 1157   4.878   3.727   8.470  0.0391 -0.0433  0.1560
   69POPC   PO4 1158   4.476   3.956   8.819 -0.1203 -0.0910 -0.1431
   69POPC   GL1 1159   4.532   4.085   8.365 -0.2571  0.3522  0.2165
   69POPC   G1P 1160   4.506   4.058   8.230 -0.1933  0.1507  0.2429
   69POPC   G1M 1161   4.446   3.976   8.384  0.0509 -0.0402 -0.4382
   69POPC   GL2 1162   4.316   4.346   8.150  0.3534 -0.4282 -0.1187
   69POPC   G2P 1163   4.379   4.252   8.232  0.1113 -0.5272 -0.0407
   69POPC   G2M 1164   4.295   4.208   8.155 -0.2786 -0.3475 -0.1162
   69POPC   C1A 1165   3.950   4.432   7.971 -0.3830 -0.0103 -0.1334
   69POPC   C2A 1166   3.611   4.626   7.660 -0.1843  0.0483  0.1194
   69POPC   C3A 1167   3.542   5.030   7.472  0.0433 -0.2613  0.1533
   69POPC   C4A 1168   3.433   5.447   7.626  0.1724  0.0084 -0.2914
   69POPC   C1B 1169   4.974   4.114   8.087  0.1835 -0.3412  0.1462
   69POPC   C2B 1170   5.325   4.285   7.666 -0.2166 -0.2342 -0.4426
   69POPC   D3B 1171   5.374   4.031   7.252  0.1005 -0.0993  0.1434
   69POPC   C4B 1172   4.902   3.983   7.295  0.1026  0.3761 -0.4827
   69POPC   C5B 1173   4.623   3.759   7.456  0.0782 -0.0717  0.0135
   70POPC   NC3 1174   3.794   5.396   8.859 -0.1613 -0.1565 -0.2611
   70POPC   PO4 1175   3.535   4.874   8.656 -0.2356 -0.0006 -0.1673
   70POPC   GL1 1176   3.415   4.802   8.168  0.2631  0.0755 -0.2408
   70POPC   G1P 1177   3.400   4.664   8.147 -0.3278  0.0914 -0.0281
   70POPC   G1M 1178   3.506   4.728   8.244  0.1074  0.1506  0.0229
   70POPC   GL2 1179   3.749   4.872   8.078  0.2867  0.3689  0.5623
   70POPC   G2P 1180   3.859   4.945   8.033  0.4790 -0.1875  0.0612
   70POPC   G2M 1181   3.741   4.957   7.967 -0.2682 -0.2064  0.1258
   70POPC   C1A 1182   4.269   4.882   7.905 -0.2978  0.1615 -0.1895
   70POPC   C2A 1183   4.533   4.551   7.691  0.1089  0.1957  0.0110
   70POPC   C3A 1184   4.471   4.251   7.259 -0.2880  0.0206 -0.0125
   70POPC   C4A 1185   4.563   3.984   6.956  0.1064  0.1572 -0.2369
   70POPC   C1B 1186   3.125   4.987   7.864  0.2623  0.0954  0.1263
   70POPC   C2B 1187   2.889   4.737   7.534 -0.1639 -0.2589 -0.4407
   70POPC   D3B 1188   2.784   4.392   7.384  0.1759  0.2099 -0.4885
   70POPC   C4B 1189   2.355   4.360   7.242  0.2722 -0.0769 -0.1256
   70POPC   C5B 1190   2.232   4.722   6.847  0.2016  0.0227 -0.1116
   71POPC   NC3 1191  11.495   5.220   8.401  0.3305  0.0035 -0.2483
   71POPC   PO4 1192  11.470   5.732   8.511 -0.0003 -0.0279 -0.0296
   71POPC   GL1 1193  11.179   5.500   8.110 -0.2616 -0.1598  0.5029
   71POPC   G1P 1194  11.072   5.434   8.173 -0.5062 -0.2039  0.0622
   71POPC   G1M 1195  11.097   5.608   8.147 -0.0356  0.2365 -0.0733
   71POPC   GL2 1196  10.870   5.668   8.239  0.1652 -0.1682 -0.0996
   71POPC   G2P 1197  10.737   5.661   8.285  0.1943 -0.1702 -0.0149
   71POPC   G2M 1198  10.854   5.562   8.330  0.5432  0.2216  0.4510
   71POPC   C1A 1199  11.077   6.126   8.077 -0.0035  0.0101 -0.1169
   71POPC   C2A 1200  11.331   6.373   7.755 -0.1055  0.2082  0.1268
   71POPC   C3A 1201  11.706   6.590   7.517 -0.1048 -0.0180  0.1366
   71POPC   C4A 1202  11.837   6.670   7.077  0.0788  0.0356  0.1118
   71POPC   C1B 1203  10.900   5.342   7.685  0.0049  0.0497 -0.0179
   71POPC   C2B 1204  10.721   5.073   7.315 -0.1158 -0.1625  0.1576
   71POPC   D3B 1205  10.393   4.802   7.026  0.0532  0.0486 -0.3834
   71POPC   C4B 1206  10.331   4.830   6.624  0.0034  0.2201  0.0036
   71POPC   C5B 1207  10.565   4.435   6.405 -0.3053 -0.0419 -0.0174
   72POPC   NC3 1208   2.456   2.748   9.005  0.1834 -0.0932 -0.2064
   72POPC   PO4 1209   2.484   3.124   8.728  0.0144 -0.0915  0.1852
   72POPC   GL1 1210   2.362   3.042   8.305 -0.0928  0.0131 -0.3253
   72POPC   G1P 1211   2.398   3.102   8.184 -0.0997  0.1763 -0.2484
   72POPC   G1M 1212   2.452   3.143   8.340 -0.0266 -0.1511 -0.0017
   72POPC   GL2 1213   2.353   3.305   8.056 -0.5502  0.6689 -0.1132
   72POPC   G2P 1214   2.398   3.407   8.141 -0.1119  0.1793  0.2806
   72POPC   G2M 1215   2.492   3.311   8.072 -0.5686  0.2420  0.3545
   72POPC   C1A 1216   2.334   3.595   7.721  0.2157 -0.0480 -0.0304
   72POPC   C2A 1217   2.322   3.917   7.407 -0.0922 -0.2744 -0.0877
   72POPC   C3A 1218   2.397   3.966   6.956 -0.1397  0.0478 -0.0308
   72POPC   C4A 1219   2.699   3.719   6.754  0.0076 -0.0870 -0.0793
   72POPC   C1B 1220   2.378   2.697   7.994  0.0344  0.2292 -0.3174
   72POPC   C2B 1221   2.466   2.251   7.938 -0.1360  0.0102  0.3858
   72POPC   D3B 1222   2.768   1.922   7.943 -0.3262 -0.1699 -0.0103
   72POPC   C4B 1223   2.886   1.589   7.582  0.1862 -0.0837 -0.0634
   72POPC   C5B 1224   2.911   1.393   7.213 -0.0269 -0.2888  0.1758
   73POPC   NC3 1225   3.511  10.865   8.836 -0.1563 -0.0255  0.0544
   73POPC   PO4 1226   2.929  10.984   8.748  0.0556 -0.2119 -0.0799
   73POPC   GL1 1227   2.681  11.152   8.386 -0.5173  0.4449  0.4108
   73POPC   G1P 1228   2.582  11.137   8.288 -0.3006  0.0183  0.2459
   73POPC   G1M 1229   2.620  11.039   8.441  0.2583 -0.1927  0.0693
   73POPC   GL2 1230   2.391  11.058   8.291  0.2657  0.1089  0.1146
   73POPC   G2P 1231   2.529  11.048   8.310  0.2906  0.1518 -0.0410
   73POPC   G2M 1232   2.437  10.982   8.184 -0.1531 -0.0131  0.0120
   73POPC   C1A 1233   2.527  10.925   7.857  0.3913  0.0789  0.3378
   73POPC   C2A 1234   2.480  11.114   7.472 -0.1147 -0.1331 -0.1074
   73POPC   C3A 1235   2.660  11.306   7.018 -0.3783 -0.1902 -0.2662
   73POPC   C4A 1236   2.353  11.391   6.714  0.0443 -0.1103 -0.1184
   73POPC   C1B 1237   2.769  11.366   8.025  0.0039 -0.0081  0.0253
   73POPC   C2B 1238   2.705  11.590   7.659 -0.1551 -0.2858  0.3322
   73POPC   D3B 1239   2.782  11.821   7.344  0.0720  0.0861 -0.0165
   73POPC   C4B 1240   2.826   0.073   7.064  0.0333 -0.1847 -0.0549
   73POPC   C5B 1241   2.775   0.434   6.778 -0.2599  0.1041  0.1675
   74POPC   NC3 1242   5.506   6.482   8.929 -0.1782 -0.2048 -0.0014
   74POPC   PO4 1243   5.761   6.595   8.384  0.1257 -0.0141  0.0684
   74POPC   GL1 1244   5.825   6.555   7.940  0.3387 -0.3115 -0.0927
   74POPC   G1P 1245   5.773   6.500   8.058  0.4431 -0.2107  0.0007
   74POPC   G1M 1246   5.866   6.655   8.028 -0.3032  0.3574 -0.4921
   74POPC   GL2 1247   5.689   6.274   7.962  0.0232  0.6502 -0.0556
   74POPC   G2P 1248   5.749   6.335   8.073 -0.2742  0.5160  0.1842
   74POPC   G2M 1249   5.780   6.214   8.051 -0.4315  0.1478  0.0958
   74POPC   C1A 1250   5.391   6.029   7.787  0.0568  0.1671 -0.1653
   74POPC   C2A 1251   4.990   5.807   7.710  0.4173  0.0727  0.1396
   74POPC   C3A 1252   4.996   5.442   7.459  0.2507 -0.1565  0.1315
   74POPC   C4A 1253   4.974   5.086   7.174 -0.0685  0.0085  0.2019
   74POPC   C1B 1254   5.680   6.627   7.516  0.0421  0.0960 -0.3583
   74POPC   C2B 1255   5.819   6.884   7.225  0.0076  0.1137 -0.1265
   74POPC   D3B 1256   6.043   7.081   6.864 -0.1307 -0.1971  0.2523
   74POPC   C4B 1257   6.310   6.871   6.616 -0.0628  0.0026 -0.0449
   74POPC   C5B 1258   6.334   6.692   6.196 -0.2032 -0.0486 -0.0935
   75POPC   NC3 1259   1.409   2.427   8.509  0.1474  0.2249 -0.2093
   75POPC   PO4 1260   1.679   2.740   8.859 -0.0794 -0.0028  0.0631
   75POPC   GL1 1261   1.769   2.789   8.375 -0.0177 -0.1731  0.4150
   75POPC   G1P 1262   1.721   2.687   8.291  0.0905  0.1463 -0.0540
   75POPC   G1M 1263   1.669   2.743   8.462 -0.2350 -0.1426  0.1882
   75POPC   GL2 1264   1.738   3.145   8.164  0.1796 -0.3161 -0.1841
   75POPC   G2P 1265   1.716   3.249   8.256  0.5157  0.0283 -0.4732
   75POPC   G2M 1266   1.823   3.120   8.273 -0.0674 -0.2472  0.0279
   75POPC   C1A 1267   1.865   3.284   7.773  0.0400  0.1732 -0.1504
   75POPC   C2A 1268   2.256   3.155   7.531  0.1129 -0.0313 -0.2095
   75POPC   C3A 1269   2.187   3.060   7.083 -0.1547 -0.0187 -0.0893
   75POPC   C4A 1270   2.251   2.901   6.753  0.0990 -0.2433  0.0925
   75POPC   C1B 1271   1.786   2.776   7.828  0.1824  0.3049  0.1658
   75POPC   C2B 1272   1.802   2.942   7.396 -0.0633  0.1859  0.0713
   75POPC   D3B 1273   1.768   3.344   7.127  0.2156 -0.0448  0.0656
   75POPC   C4B 1274   1.395   3.593   7.093  0.1430  0.0826 -0.1920
   75POPC   C5B 1275   1.054   3.917   6.944 -0.0580 -0.0734  0.0352
   76POPC   NC3 1276   5.878   0.435   9.056 -0.1659  0.1952  0.0016
   76POPC   PO4 1277   5.607   0.518   8.549  0.1398 -0.0693 -0.2786
   76POPC   GL1 1278   5.359   0.406   8.208 -0.1351  0.0289 -0.0463
   76POPC   G1P 1279   5.232   0.351   8.229 -0.3219  0.2726 -0.4747
   76POPC   G1M 1280   5.353   0.282   8.273 -0.6220 -0.0968 -0.3034
   76POPC   GL2 1281   5.656   0.300   8.063 -0.2067  0.1208  0.5126
   76POPC   G2P 1282   5.723   0.418   8.027  0.3248 -0.2177  0.3112
   76POPC   G2M 1283   5.662   0.229   7.942  0.2793  0.4670  0.3133
   76POPC   C1A 1284   5.385   0.397   7.663  0.2267  0.2566  0.0569
   76POPC   C2A 1285   4.936   0.344   7.658  0.2028  0.0257  0.0701
   76POPC   C3A 1286   4.644   0.057   7.858 -0.3178 -0.0565 -0.0662
   76POPC   C4A 1287   4.378  11.784   7.847  0.0458 -0.0777 -0.1486
   76POPC   C1B 1288   5.152   0.043   7.954 -0.2390 -0.0656 -0.1043
   76POPC   C2B 1289   5.236  11.884   7.569 -0.1416 -0.0493  0.2376
   76POPC   D3B 1290   5.357  11.589   7.305  0.1667 -0.1381 -0.2175
   76POPC   C4B 1291   5.395  11.893   6.928 -0.0999 -0.0763  0.2286
   76POPC   C5B 1292   5.512   0.210   6.766  0.2022 -0.0627 -0.2774
   77POPC   NC3 1293   8.078   3.870   9.028 -0.2682  0.0166  0.0143
   77POPC   PO4 1294   8.063   4.087   8.530  0.0991  0.2687 -0.2020
   77POPC   GL1 1295   8.010   4.388   8.089  0.0229 -0.1271 -0.0303
   77POPC   G1P 1296   7.997   4.317   7.969  0.7422  0.0368 -0.2255
   77POPC   G1M 1297   7.892   4.326   8.133 -0.1940  0.5435  0.4065
   77POPC   GL2 1298   7.634   4.231   7.973  0.3084  0.0424  0.2371
   77POPC   G2P 1299   7.713   4.135   7.907  0.0628  0.2541 -0.4045
   77POPC   G2M 1300   7.596   4.190   7.844  0.2241 -0.0531  0.2921
   77POPC   C1A 1301   7.585   3.834   7.864  0.0530  0.2298 -0.0581
   77POPC   C2A 1302   7.449   3.512   7.574 -0.2177 -0.0943 -0.1594
   77POPC   C3A 1303   7.638   3.063   7.447  0.1258 -0.0831  0.0068
   77POPC   C4A 1304   7.504   2.888   7.099  0.2519 -0.2855  0.4021
   77POPC   C1B 1305   8.172   4.637   7.622 -0.0057 -0.1982  0.0844
   77POPC   C2B 1306   8.195   4.828   7.193  0.0934  0.0771 -0.2990
   77POPC   D3B 1307   8.076   4.816   6.768  0.1179  0.3190 -0.2556
   77POPC   C4B 1308   8.400   4.679   6.424  0.0140 -0.0388  0.1241
   77POPC   C5B 1309   8.679   4.575   6.131  0.2422  0.2725 -0.0787
   78POPC   NC3 1310   1.380   8.126   8.651  0.1333 -0.0020 -0.0039
   78POPC   PO4 1311   0.892   8.414   8.509 -0.1586 -0.0736 -0.1843
   78POPC   GL1 1312   0.864   8.268   8.134 -0.4297  0.0867  0.0413
   78POPC   G1P 1313   0.766   8.365   8.155 -0.4478  0.0686  0.0408
   78POPC   G1M 1314   0.933   8.383   8.172  0.2918 -0.2975 -0.0146
   78POPC   GL2 1315   1.184   8.214   8.149 -0.1437  0.0671 -0.1175
   78POPC   G2P 1316   1.199   8.184   8.013  0.1287 -0.7174  0.0548
   78POPC   G2M 1317   1.080   8.255   8.065 -0.3510  0.4233  0.2921
   78POPC   C1A 1318   1.133   8.488   7.762 -0.1705  0.0207 -0.4226
   78POPC   C2A 1319   0.929   8.774   7.445 -0.1201  0.0906 -0.2282
   78POPC   C3A 1320   0.840   8.814   6.949 -0.2482 -0.1026 -0.0556
   78POPC   C4A 1321   0.996   8.882   6.566 -0.0546 -0.1314 -0.1250
   78POPC   C1B 1322   0.871   8.055   7.662 -0.0137 -0.2882 -0.1368
   78POPC   C2B 1323   1.062   7.762   7.288  0.2227 -0.0477 -0.2531
   78POPC   D3B 1324   1.049   7.486   6.946 -0.0799  0.3174 -0.1252
   78POPC   C4B 1325   0.880   7.123   6.899  0.1924  0.1392 -0.1700
   78POPC   C5B 1326   0.592   7.017   7.153  0.0081  0.2102  0.2578
   79POPC   NC3 1327   9.686   5.939   8.729 -0.2281 -0.1490  0.0027
   79POPC   PO4 1328   9.716   5.472   8.487  0.2223 -0.0024 -0.1355
   79POPC   GL1 1329   9.443   5.544   8.074  0.1722  0.5972  0.3673
   79POPC   G1P 1330   9.320   5.587   8.124  0.0573  0.1089  0.5279
   79POPC   G1M 1331   9.359   5.496   8.175 -0.1972  0.0873 -0.1500
   79POPC   GL2 1332   9.097   5.382   8.029  0.0230  0.2529 -0.0759
   79POPC   G2P 1333   9.096   5.481   8.128 -0.1635  0.5184 -0.3348
   79POPC   G2M 1334   8.991   5.471   8.047 -0.4085 -0.2641  0.0576
   79POPC   C1A 1335   9.116   4.971   7.859 -0.0285 -0.1420 -0.1566
   79POPC   C2A 1336   9.203   4.786   7.469 -0.1461 -0.1109  0.3767
   79POPC   C3A 1337   9.571   4.818   7.180 -0.2882 -0.0398  0.1996
   79POPC   C4A 1338   9.921   4.871   7.262 -0.1709 -0.2185 -0.2150
   79POPC   C1B 1339   9.458   5.432   7.613 -0.0555  0.2664 -0.0503
   79POPC   C2B 1340   9.778   5.360   7.346 -0.0545 -0.0421 -0.1005
   79POPC   D3B 1341  10.071   5.630   7.128 -0.0497 -0.1744  0.0704
   79POPC   C4B 1342  10.111   5.714   6.764  0.0535  0.0722 -0.0835
   79POPC   C5B 1343  10.511   5.866   6.752 -0.2514  0.0907 -0.1774
   80POPC   NC3 1344   3.966   6.188   8.520 -0.2288  0.1527 -0.0873
   80POPC   PO4 1345   4.233   5.635   8.620  0.0300 -0.2266  0.0583
   80POPC   GL1 1346   4.323   5.675   8.085  0.0929 -0.2202 -0.2087
   80POPC   G1P 1347   4.357   5.539   8.080  0.2527 -0.1945  0.0713
   80POPC   G1M 1348   4.224   5.584   8.125 -0.0364 -0.2770 -0.6306
   80POPC   GL2 1349   4.476   5.440   7.836 -0.3753  0.0686  0.0178
   80POPC   G2P 1350   4.547   5.491   7.946 -0.2587  0.4935 -0.2411
   80POPC   G2M 1351   4.561   5.361   7.914  0.3912  0.4679 -0.3652
   80POPC   C1A 1352   4.896   5.346   7.946 -0.0171  0.3074  0.0867
   80POPC   C2A 1353   5.274   5.107   7.720  0.1807 -0.2941  0.2042
   80POPC   C3A 1354   5.574   5.094   7.465 -0.5094 -0.1347  0.0382
   80POPC   C4A 1355   5.864   4.940   7.196  0.1207 -0.1351 -0.0843
   80POPC   C1B 1356   4.574   5.949   7.921  0.3396 -0.2023  0.2380
   80POPC   C2B 1357   4.536   5.831   7.528 -0.0992  0.2277  0.1223
   80POPC   D3B 1358   4.747   5.821   7.184 -0.0671 -0.0521  0.0762
   80POPC   C4B 1359   4.893   5.648   6.884 -0.0875  0.1961  0.1608
   80POPC   C5B 1360   5.103   5.375   6.698  0.0970 -0.0365 -0.1402
   81POPC   NC3 1361   4.816   7.937   8.754 -0.1718  0.0433 -0.1241
   81POPC   PO4 1362   5.372   8.232   8.533  0.1702 -0.2232 -0.2816
   81POPC   GL1 1363   5.358   8.100   8.103 -0.2117  0.1467 -0.2632
   81POPC   G1P 1364   5.481   8.074   8.164 -0.2199  0.3059 -0.1765
   81POPC   G1M 1365   5.470   8.151   8.037 -0.2046 -0.0442 -0.4040
   81POPC   GL2 1366   5.428   8.319   7.842 -0.1547 -0.0723  0.3622
   81POPC   G2P 1367   5.565   8.333   7.816 -0.1014  0.0198  0.6734
   81POPC   G2M 1368   5.533   8.227   7.824 -0.0543  0.1208 -0.1108
   81POPC   C1A 1369   5.423   8.178   7.500 -0.1517 -0.2064 -0.1984
   81POPC   C2A 1370   5.282   7.916   7.190 -0.0672 -0.0084  0.3628
   81POPC   C3A 1371   5.460   7.656   6.800 -0.1824  0.0914 -0.1787
   81POPC   C4A 1372   5.668   7.261   6.557 -0.0982 -0.0076 -0.1841
   81POPC   C1B 1373   5.083   7.881   7.737 -0.2432  0.1098 -0.1035
   81POPC   C2B 1374   4.770   8.048   7.456 -0.1193  0.1488 -0.1412
   81POPC   D3B 1375   4.853   8.190   7.069 -0.1850  0.1656 -0.1889
   81POPC   C4B 1376   5.219   8.447   7.117 -0.0173 -0.0206 -0.0904
   81POPC   C5B 1377   5.292   8.845   7.095  0.2978  0.0131  0.2054
   82POPC   NC3 1378   3.796  11.440   8.782 -0.2377 -0.1424 -0.2218
   82POPC   PO4 1379   3.300  11.261   8.976  0.1053 -0.2815  0.1465
   82POPC   GL1 1380   3.502  11.211   8.464 -0.0619 -0.0434 -0.1218
   82POPC   G1P 1381   3.501  11.071   8.470 -0.2162 -0.0385  0.0038
   82POPC   G1M 1382   3.602  11.177   8.372  0.0102 -0.0262 -0.0507
   82POPC   GL2 1383   3.184  11.172   8.285 -0.0145 -0.0096  0.1073
   82POPC   G2P 1384   3.209  11.295   8.221 -0.2078  0.4504  0.8532
   82POPC   G2M 1385   3.104  11.153   8.171 -0.0584 -0.1163  0.1561
   82POPC   C1A 1386   3.407  10.878   7.958 -0.2774  0.3512  0.0929
   82POPC   C2A 1387   3.719  10.936   7.732  0.0128 -0.0478  0.0656
   82POPC   C3A 1388   3.846  10.900   7.327  0.2716 -0.1165  0.1859
   82POPC   C4A 1389   4.098  10.781   6.925 -0.1445  0.0299 -0.1885
   82POPC   C1B 1390   3.636  11.334   8.127 -0.0379 -0.4570 -0.0050
   82POPC   C2B 1391   3.725  11.786   7.856  0.1742  0.2847 -0.0797
   82POPC   D3B 1392   3.686  12.098   8.085 -0.1472  0.0230 -0.0550
   82POPC   C4B 1393   3.470   0.293   7.923  0.1088  0.1822  0.0386
   82POPC   C5B 1394   3.414   0.449   7.524  0.2436 -0.0954  0.0159
   83POPC   NC3 1395  10.166   6.119   9.099 -0.2207 -0.1430 -0.0883
   83POPC   PO4 1396  10.031   6.224   8.527  0.3771 -0.0734  0.1653
   83POPC   GL1 1397  10.175   6.136   8.025  0.0644  0.0643 -0.3318
   83POPC   G1P 1398  10.309   6.157   8.058 -0.0607 -0.0559  0.3351
   83POPC   G1M 1399  10.117   6.244   8.092 -0.3868 -0.2498 -0.1862
   83POPC   GL2 1400  10.476   5.920   8.022 -0.0600  0.1443 -0.4293
   83POPC   G2P 1401  10.589   5.982   7.967  0.0178  0.2083 -0.2011
   83POPC   G2M 1402  10.545   6.004   8.110 -0.0206 -0.1591 -0.1615
   83POPC   C1A 1403  10.484   5.609   7.669 -0.1768  0.2459 -0.0833
   83POPC   C2A 1404  10.561   5.638   7.218 -0.1440 -0.1101  0.1482
   83POPC   C3A 1405  10.838   5.495   6.903  0.0198  0.1581 -0.0675
   83POPC   C4A 1406  10.913   5.361   6.468 -0.2265  0.0290  0.1748
   83POPC   C1B 1407  10.191   6.007   7.655  0.1171 -0.1951 -0.1746
   83POPC   C2B 1408   9.974   6.072   7.385 -0.1621 -0.4994  0.1066
   83POPC   D3B 1409   9.774   6.380   7.199 -0.2680  0.0769 -0.0937
   83POPC   C4B 1410   9.376   6.389   6.965 -0.1590 -0.2304  0.0370
   83POPC   C5B 1411   9.209   6.381   6.489 -0.1923  0.0934  0.0680
   84POPC   NC3 1412   2.559  10.741   8.590 -0.1030 -0.0013  0.1148
   84POPC   PO4 1413   2.313  10.192   8.687  0.2137 -0.2792  0.0543
   84POPC   GL1 1414   2.087  10.071   8.299 -0.2086 -0.2163 -0.5818
   84POPC   G1P 1415   1.966  10.142   8.294  0.0477  0.2670 -0.3162
   84POPC   G1M 1416   2.144  10.199   8.293 -0.1673 -0.2192 -0.3107
   84POPC   GL2 1417   1.687  10.036   8.209 -0.1238  0.1916 -0.1220
   84POPC   G2P 1418   1.584  10.126   8.180  0.0705  0.3440 -0.3661
   84POPC   G2M 1419   1.723  10.102   8.091 -0.5602 -0.0481 -0.4001
   84POPC   C1A 1420   1.498   9.988   7.764 -0.2006 -0.2133  0.1173
   84POPC   C2A 1421   1.561  10.130   7.323 -0.0298 -0.0702 -0.0823
   84POPC   C3A 1422   1.433  10.232   7.077  0.3716  0.1897  0.2054
   84POPC   C4A 1423   1.063  10.385   6.972 -0.1195 -0.1706 -0.3680
   84POPC   C1B 1424   2.043   9.780   8.039  0.0121  0.1178 -0.0340
   84POPC   C2B 1425   2.045   9.565   7.709 -0.0975  0.0376  0.4238
   84POPC   D3B 1426   2.049   9.322   7.282 -0.3547  0.2410  0.0664
   84POPC   C4B 1427   1.686   9.382   7.058  0.0527  0.4123  0.1877
   84POPC   C5B 1428   1.386   9.165   6.780 -0.1484  0.2625  0.0867
   85POPC   NC3 1429  10.305   0.491   8.793 -0.2853  0.1656 -0.2884
   85POPC   PO4 1430  10.089  12.114   8.600  0.1225  0.1031  0.1073
   85POPC   GL1 1431   9.972  12.111   8.197  0.1869 -0.0151  0.0083
   85POPC   G1P 1432  10.109  12.137   8.196  0.1248  0.3450 -0.3613
   85POPC   G1M 1433   9.981  12.113   8.337 -0.0957 -0.0130  0.0308
   85POPC   GL2 1434  10.140   0.161   7.977  0.2652 -0.0881  0.3200
   85POPC   G2P 1435  10.035   0.253   7.974  0.0026 -0.3739 -0.4163
   85POPC   G2M 1436  10.247   0.248   7.957  0.2117 -0.0326  0.2769
   85POPC   C1A 1437  10.178   0.314   7.618  0.0716 -0.0893  0.3717
   85POPC   C2A 1438  10.192   0.237   7.262  0.1431  0.0714  0.1568
   85POPC   C3A 1439  10.213  12.034   6.928 -0.2993  0.1634 -0.2681
   85POPC   C4A 1440  10.274  11.627   7.115  0.0348  0.1006 -0.4244
   85POPC   C1B 1441   9.638  11.853   7.841  0.0040 -0.0380  0.0368
   85POPC   C2B 1442   9.702  11.446   7.663  0.0233  0.3982 -0.1930
   85POPC   D3B 1443   9.945  11.322   7.373 -0.1130  0.0844  0.0388
   85POPC   C4B 1444   9.688  10.966   7.165  0.0697 -0.1578 -0.5055
   85POPC   C5B 1445   9.475  10.614   7.278 -0.2326  0.1094 -0.3228
   86POPC   NC3 1446   9.915   3.852   9.085 -0.2404 -0.1085 -0.0453
   86POPC   PO4 1447   9.719   4.255   8.683  0.0354  0.1861  0.0096
   86POPC   GL1 1448   9.520   4.378   8.326 -0.0261 -0.2643  0.2895
   86POPC   G1P 1449   9.394   4.429   8.294  0.2551  0.2558 -0.0677
   86POPC   G1M 1450   9.506   4.399   8.463 -0.1819  0.3739  0.1902
   86POPC   GL2 1451   9.798   4.359   8.018  0.0952  0.0701 -0.1938
   86POPC   G2P 1452   9.777   4.494   8.049  0.0080  0.0033  0.0475
   86POPC   G2M 1453   9.803   4.455   8.120 -0.0211  0.1193 -0.2331
   86POPC   C1A 1454  10.063   4.688   7.942  0.1212 -0.0227  0.2841
   86POPC   C2A 1455  10.373   4.660   7.626  0.0286  0.1701 -0.1244
   86POPC   C3A 1456  10.727   4.487   7.357 -0.0753 -0.0519  0.5523
   86POPC   C4A 1457  10.595   4.202   6.991  0.1695 -0.0052  0.2237
   86POPC   C1B 1458   9.295   4.386   7.948  0.0554 -0.0172  0.2168
   86POPC   C2B 1459   8.837   4.388   7.634 -0.0793  0.0863 -0.2566
   86POPC   D3B 1460   8.552   4.214   7.242 -0.0759 -0.1592 -0.1741
   86POPC   C4B 1461   8.507   4.497   6.937  0.0999  0.1283 -0.0821
   86POPC   C5B 1462   8.611   4.914   6.877  0.0774 -0.0840  0.0799
   87POPC   NC3 1463   8.952   6.507   9.112  0.3636 -0.0957 -0.2544
   87POPC   PO4 1464   8.509   6.928   9.021  0.1305  0.5766  0.2212
   87POPC   GL1 1465   8.611   7.163   8.583  0.1732 -0.2730  0.1174
   87POPC   G1P 1466   8.646   7.288   8.635 -0.1891 -0.1579  0.1005
   87POPC   G1M 1467   8.563   7.159   8.715 -0.3804 -0.8766 -0.0759
   87POPC   GL2 1468   8.968   7.198   8.466 -0.1559 -0.0524 -0.0217
   87POPC   G2P 1469   8.886   7.103   8.527 -0.2685 -0.0699 -0.1969
   87POPC   G2M 1470   8.906   7.280   8.561  0.2700 -0.0947  0.3095
   87POPC   C1A 1471   9.039   6.994   8.106  0.4986 -0.1471 -0.2085
   87POPC   C2A 1472   9.341   6.886   7.752  0.0193 -0.1476  0.0703
   87POPC   C3A 1473   9.705   6.824   7.431  0.0064 -0.0960  0.0476
   87POPC   C4A 1474  10.170   7.048   7.423 -0.0042 -0.1515  0.1451
   87POPC   C1B 1475   8.565   7.161   8.082  0.0071  0.0027 -0.1032
   87POPC   C2B 1476   8.816   7.231   7.648  0.2092  0.0562  0.1391
   87POPC   D3B 1477   8.999   7.607   7.440 -0.0934 -0.0368  0.2266
   87POPC   C4B 1478   9.123   8.018   7.554  0.0058  0.0466 -0.1204
   87POPC   C5B 1479   9.391   8.281   7.700  0.3410  0.0296 -0.2715
   88POPC   NC3 1480   6.689   5.319   8.413  0.0811  0.1888  0.0105
   88POPC   PO4 1481   6.995   5.438   8.866  0.3811  0.1677 -0.1100
   88POPC   GL1 1482   7.174   5.367   8.459  0.0680 -0.1944 -0.0182
   88POPC   G1P 1483   7.308   5.407   8.466  0.1248 -0.3943  0.0674
   88POPC   G1M 1484   7.135   5.433   8.576 -0.2924 -0.3554 -0.0414
   88POPC   GL2 1485   7.073   5.576   8.313  0.1339 -0.3332  0.1192
   88POPC   G2P 1486   7.194   5.635   8.351 -0.5166  0.9415  0.5038
   88POPC   G2M 1487   7.079   5.647   8.433  0.1746 -0.2687  0.0799
   88POPC   C1A 1488   7.087   5.516   7.810  0.1471 -0.1564 -0.1693
   88POPC   C2A 1489   7.409   5.691   7.577  0.0235  0.2611 -0.2733
   88POPC   C3A 1490   7.691   5.922   7.391  0.2101 -0.0526 -0.1511
   88POPC   C4A 1491   7.615   6.160   7.123  0.0772 -0.0786  0.4017
   88POPC   C1B 1492   7.361   5.156   8.104  0.2412  0.2400  0.1585
   88POPC   C2B 1493   7.699   4.852   8.044 -0.2502  0.1319 -0.1644
   88POPC   D3B 1494   8.148   5.011   7.973  0.2803 -0.0389 -0.0843
   88POPC   C4B 1495   8.154   5.269   7.612  0.3370 -0.0363 -0.0247
   88POPC   C5B 1496   7.860   5.466   7.343  0.1254 -0.0235  0.3000
   89POPC   NC3 1497   7.837  10.676   8.495 -0.2559 -0.1373  0.0151
   89POPC   PO4 1498   7.647  10.116   8.585 -0.0479  0.1670 -0.0078
   89POPC   GL1 1499   7.398  10.006   8.182 -0.0392 -0.3481  0.2360
   89POPC   G1P 1500   7.385  10.145   8.172 -0.1997 -0.3461  0.4185
   89POPC   G1M 1501   7.487  10.094   8.243 -0.1326 -0.4838  0.5831
   89POPC   GL2 1502   7.640  10.372   8.120  0.0491 -0.0026  0.3831
   89POPC   G2P 1503   7.776  10.402   8.116  0.1530 -0.4603 -0.3058
   89POPC   G2M 1504   7.658  10.399   8.256  0.4724  0.3875  0.2644
   89POPC   C1A 1505   7.396  10.402   7.736  0.2849  0.2724  0.0838
   89POPC   C2A 1506   7.416  10.775   7.470  0.4282  0.1681  0.0056
   89POPC   C3A 1507   7.365  11.049   7.137 -0.1617  0.0403  0.1048
   89POPC   C4A 1508   6.948  11.104   7.000  0.3185  0.0582  0.0711
   89POPC   C1B 1509   7.350   9.775   7.854  0.3417  0.1309 -0.0064
   89POPC   C2B 1510   7.498   9.356   7.616  0.0510 -0.0640  0.1379
   89POPC   D3B 1511   7.783   9.043   7.298  0.1982  0.1968 -0.1139
   89POPC   C4B 1512   7.674   8.878   6.967  0.1688 -0.0562  0.0788
   89POPC   C5B 1513   7.374   8.890   6.707  0.1210 -0.2146 -0.4327
   90POPC   NC3 1514   8.204   4.975   8.671 -0.0853 -0.0151 -0.0856
   90POPC   PO4 1515   8.260   5.417   8.949  0.0602  0.0035 -0.0440
   90POPC   GL1 1516   8.182   5.468   8.494 -0.0108  0.0883 -0.0972
   90POPC   G1P 1517   8.306   5.462   8.429  0.0515  0.0624  0.0222
   90POPC   G1M 1518   8.244   5.354   8.547 -0.1033 -0.0606 -0.3037
   90POPC   GL2 1519   8.057   5.768   8.508  0.3866  0.0428  0.2797
   90POPC   G2P 1520   7.969   5.869   8.549  0.0719 -0.1570  0.1144
   90POPC   G2M 1521   7.971   5.721   8.608  0.1965  0.0269  0.1130
   90POPC   C1A 1522   8.091   5.897   8.085 -0.1368  0.0425 -0.2786
   90POPC   C2A 1523   8.188   5.923   7.659  0.1361  0.1246  0.0288
   90POPC   C3A 1524   8.400   5.861   7.279 -0.0166  0.3394 -0.3770
   90POPC   C4A 1525   8.722   5.803   7.126 -0.1135 -0.1696 -0.1068
   90POPC   C1B 1526   8.394   5.501   8.079  0.1836  0.0677 -0.0342
   90POPC   C2B 1527   8.624   5.631   7.708 -0.2152  0.3937 -0.1587
   90POPC   D3B 1528   9.061   5.770   7.691 -0.1873 -0.0014 -0.0121
   90POPC   C4B 1529   9.266   6.114   7.952  0.3144  0.2527  0.1907
   90POPC   C5B 1530   9.674   6.352   7.889  0.1781 -0.0501 -0.2133
   91POPC   NC3 1531  10.483   1.527   8.882 -0.2498  0.0607 -0.0374
   91POPC   PO4 1532  10.414   0.940   8.796 -0.0654 -0.0009 -0.4453
   91POPC   GL1 1533  10.564   1.214   8.431  0.0691  0.0008  0.1023
   91POPC   G1P 1534  10.588   1.158   8.558  0.3922 -0.2089 -0.0442
   91POPC   G1M 1535  10.500   1.092   8.408 -0.5209  0.2764  0.1833
   91POPC   GL2 1536  10.889   1.232   8.344 -0.1569  0.1707  0.1962
   91POPC   G2P 1537  10.900   1.242   8.483 -0.1297 -0.1335  0.2197
   91POPC   G2M 1538  11.022   1.222   8.388 -0.2242 -0.4927  0.2933
   91POPC   C1A 1539  10.755   1.493   8.024  0.0434  0.0528  0.0845
   91POPC   C2A 1540  11.010   1.717   7.648 -0.0703 -0.2862 -0.1714
   91POPC   C3A 1541  11.100   2.098   7.551 -0.2728 -0.0913 -0.2824
   91POPC   C4A 1542  11.157   2.528   7.384  0.1596  0.1250  0.0933
   91POPC   C1B 1543  10.432   1.104   8.021 -0.0661  0.0887  0.0289
   91POPC   C2B 1544  10.713   1.235   7.585 -0.1708 -0.1723  0.1788
   91POPC   D3B 1545  10.655   1.369   7.151  0.0991  0.3742 -0.1378
   91POPC   C4B 1546  10.255   1.686   7.134 -0.0025  0.2663 -0.0281
   91POPC   C5B 1547  10.021   1.965   6.854  0.0107  0.1434  0.1015
   92POPC   NC3 1548   8.536   1.406   8.684 -0.0432 -0.0512  0.0589
   92POPC   PO4 1549   8.822   0.894   8.585  0.2716 -0.0465 -0.2761
   92POPC   GL1 1550   8.907   0.807   8.230  0.0750  0.2534  0.2666
   92POPC   G1P 1551   8.952   0.722   8.129 -0.0579  0.4434  0.0445
   92POPC   G1M 1552   9.044   0.788   8.251  0.0314 -0.0184  0.3246
   92POPC   GL2 1553   8.706   0.490   8.193  0.3309 -0.2505  0.3410
   92POPC   G2P 1554   8.659   0.418   8.082  0.2654  0.0336  0.1806
   92POPC   G2M 1555   8.571   0.454   8.195  0.1872  0.0577 -0.7210
   92POPC   C1A 1556   8.680   0.142   7.898  0.4210  0.1825  0.0410
   92POPC   C2A 1557   8.706   0.200   7.395  0.0224 -0.0172  0.1942
   92POPC   C3A 1558   8.750   0.587   7.068  0.0566  0.0836  0.0604
   92POPC   C4A 1559   8.904   0.976   6.894 -0.0644 -0.3095 -0.0724
   92POPC   C1B 1560   9.237   1.046   7.893  0.3019 -0.1414 -0.0988
   92POPC   C2B 1561   9.604   1.020   7.716 -0.1494 -0.0511  0.1001
   92POPC   D3B 1562  10.002   1.062   7.695  0.1068  0.1266  0.4570
   92POPC   C4B 1563  10.243   1.379   7.665  0.3331  0.0303  0.1202
   92POPC   C5B 1564  10.457   1.797   7.781 -0.1813  0.0948 -0.1368
   93POPC   NC3 1565   6.755   2.332   8.650  0.0833 -0.0091  0.1705
   93POPC   PO4 1566   7.278   2.403   8.665  0.0065  0.0761 -0.0202
   93POPC   GL1 1567   7.367   2.457   8.216  0.2365  0.1524  0.1667
   93POPC   G1P 1568   7.236   2.433   8.259 -0.0881  0.5367 -0.5256
   93POPC   G1M 1569   7.334   2.559   8.307 -0.4538 -0.1519  0.2848
   93POPC   GL2 1570   7.181   2.367   7.885 -0.0391  0.5071 -0.2410
   93POPC   G2P 1571   7.065   2.400   7.957 -0.2487 -0.2413 -0.1934
   93POPC   G2M 1572   7.138   2.234   7.899 -0.0861  0.5855  0.6862
   93POPC   C1A 1573   7.430   2.158   7.583  0.2088  0.0450  0.0199
   93POPC   C2A 1574   7.714   1.937   7.368 -0.0512 -0.3125 -0.3816
   93POPC   C3A 1575   8.055   1.949   7.049 -0.3186 -0.0664 -0.0083
   93POPC   C4A 1576   8.276   1.949   6.636 -0.1406 -0.1363 -0.1782
   93POPC   C1B 1577   7.541   2.713   7.824  0.1931 -0.2282  0.2434
   93POPC   C2B 1578   7.251   2.632   7.442 -0.0785  0.2582 -0.0301
   93POPC   D3B 1579   6.761   2.635   7.154 -0.1996 -0.0870  0.2304
   93POPC   C4B 1580   6.439   2.421   7.393 -0.0755  0.0904 -0.0988
   93POPC   C5B 1581   6.327   2.037   7.628  0.3444 -0.1988  0.1218
   94POPC   NC3 1582   9.201   9.117   8.328 -0.2312 -0.2618 -0.2569
   94POPC   PO4 1583   8.820   8.674   8.432 -0.1513 -0.2409  0.1521
   94POPC   GL1 1584   9.037   8.672   8.039 -0.4862  0.2080 -0.4119
   94POPC   G1P 1585   8.922   8.615   7.982 -0.1405 -0.2375 -0.7034
   94POPC   G1M 1586   8.919   8.736   8.080 -0.5623 -0.2243  0.1127
   94POPC   GL2 1587   8.996   8.987   7.940 -0.0766 -0.1444 -0.2116
   94POPC   G2P 1588   8.956   8.939   7.815 -0.1233  0.1587 -0.3166
   94POPC   G2M 1589   9.094   8.887   7.947 -0.2759 -0.3595 -0.3918
   94POPC   C1A 1590   9.160   9.062   7.532 -0.0111  0.1014 -0.0407
   94POPC   C2A 1591   9.163   8.987   7.110  0.0485  0.0241 -0.4362
   94POPC   C3A 1592   9.052   8.775   6.799  0.0205 -0.0613  0.1369
   94POPC   C4A 1593   9.038   8.349   6.750  0.0596  0.2512 -0.2538
   94POPC   C1B 1594   8.910   8.467   7.626  0.0970 -0.0516  0.1117
   94POPC   C2B 1595   9.164   8.518   7.220  0.0358  0.0785 -0.0259
   94POPC   D3B 1596   9.593   8.678   6.958  0.0201  0.1620  0.0498
   94POPC   C4B 1597   9.479   8.479   6.542  0.2863 -0.1256  0.0605
   94POPC   C5B 1598   9.360   8.154   6.203  0.2699 -0.1256  0.1923
   95POPC   NC3 1599   3.523   0.850   8.500 -0.0654  0.0879 -0.1637
   95POPC   PO4 1600   3.608   0.385   8.763 -0.1461 -0.0153 -0.2800
   95POPC   GL1 1601   3.880   0.511   8.311 -0.3032  0.0196  0.2353
   95POPC   G1P 1602   3.844   0.493   8.177 -0.2528  0.3109  0.1795
   95POPC   G1M 1603   3.745   0.548   8.311 -0.1379  0.6808  0.4132
   95POPC   GL2 1604   4.126   0.331   8.068  0.2452 -0.3738 -0.0826
   95POPC   G2P 1605   4.143   0.449   7.995  0.3281 -0.1651  0.2611
   95POPC   G2M 1606   4.093   0.267   7.948 -0.2659  0.3595 -0.3746
   95POPC   C1A 1607   3.941   0.182   7.744  0.0744 -0.1565  0.0821
   95POPC   C2A 1608   3.678  12.078   7.454  0.2698 -0.0605  0.0482
   95POPC   C3A 1609   3.386  11.943   7.199 -0.0823 -0.0921  0.0493
   95POPC   C4A 1610   3.043  11.746   6.942  0.0583 -0.0700  0.1372
   95POPC   C1B 1611   3.797   0.716   7.941  0.2229 -0.2694  0.2697
   95POPC   C2B 1612   3.889   0.727   7.515 -0.0136 -0.0289  0.0242
   95POPC   D3B 1613   3.807   0.383   7.238 -0.4606  0.0162 -0.1034
   95POPC   C4B 1614   4.117   0.132   7.133  0.1387 -0.0608  0.6954
   95POPC   C5B 1615   4.406  11.985   7.038 -0.1510  0.0852 -0.0540
   96POPC   NC3 1616   4.863  11.638   8.777  0.0180  0.1465 -0.1319
   96POPC   PO4 1617   4.323  11.401   8.545 -0.0208 -0.0919 -0.1777
   96POPC   GL1 1618   4.325  11.382   8.176 -0.0949 -0.0563 -0.3655
   96POPC   G1P 1619   4.261  11.278   8.243  0.1167  0.1044  0.1086
   96POPC   G1M 1620   4.392  11.418   8.293 -0.4469 -0.1786 -0.1184
   96POPC   GL2 1621   4.543  11.119   7.959  0.1687 -0.1660 -0.0083
   96POPC   G2P 1622   4.477  11.241   7.976  0.1726 -0.1699  0.0374
   96POPC   G2M 1623   4.634  11.182   8.045  0.0625 -0.3214  0.2237
   96POPC   C1A 1624   4.650  11.387   7.664 -0.0614  0.0286 -0.0309
   96POPC   C2A 1625   4.772  11.740   7.467 -0.1418 -0.1276  0.0592
   96POPC   C3A 1626   4.641   0.072   7.356  0.1988  0.0466 -0.0090
   96POPC   C4A 1627   4.358   0.414   7.463 -0.0587 -0.0339 -0.2583
   96POPC   C1B 1628   4.116  11.305   7.814  0.2008 -0.2510 -0.3486
   96POPC   C2B 1629   4.180  11.361   7.469  0.1682 -0.4149  0.3310
   96POPC   D3B 1630   4.542  11.504   7.133 -0.2634  0.1608  0.2930
   96POPC   C4B 1631   4.767  11.474   6.720  0.1622  0.2191 -0.1789
   96POPC   C5B 1632   4.879  11.050   6.651 -0.0680  0.2270  0.1633
   97POPC   NC3 1633   5.300   2.633   8.474  0.3863  0.1576  0.2242
   97POPC   PO4 1634   4.853   2.822   8.409  0.0670 -0.1281  0.0577
   97POPC   GL1 1635   5.043   2.953   8.018  0.1235 -0.0547 -0.6559
   97POPC   G1P 1636   5.171   2.993   8.059 -0.1060 -0.1560  0.2734
   97POPC   G1M 1637   5.084   2.882   8.131  0.2435  0.2900 -0.4741
   97POPC   GL2 1638   5.370   2.921   8.054 -0.0149 -0.0050 -0.1268
   97POPC   G2P 1639   5.327   3.019   8.144 -0.4964 -0.3625  0.0472
   97POPC   G2M 1640   5.390   2.873   8.184 -0.2961 -0.0876 -0.1125
   97POPC   C1A 1641   5.430   2.645   7.665  0.1561  0.3473 -0.1854
   97POPC   C2A 1642   5.708   2.289   7.511  0.2806  0.0098  0.0507
   97POPC   C3A 1643   5.909   1.905   7.465  0.2357 -0.0210  0.0799
   97POPC   C4A 1644   5.858   1.505   7.541  0.0360  0.1629  0.2464
   97POPC   C1B 1645   5.181   3.100   7.631  0.0645  0.2756  0.0737
   97POPC   C2B 1646   5.325   2.965   7.298  0.1046 -0.2433 -0.0907
   97POPC   D3B 1647   5.512   2.960   6.858 -0.1690 -0.1310  0.0395
   97POPC   C4B 1648   5.972   3.091   6.897  0.3444  0.1295  0.0324
   97POPC   C5B 1649   6.329   2.839   7.004 -0.1726 -0.1186 -0.0345
   98POPC   NC3 1650   6.240   6.623   8.500  0.0302  0.2698  0.0540
   98POPC   PO4 1651   6.169   6.039   8.405  0.2015 -0.2573  0.1145
   98POPC   GL1 1652   6.178   6.155   7.977 -0.1561  0.4397  0.1411
   98POPC   G1P 1653   6.070   6.207   7.905 -0.2579 -0.1431 -0.1595
   98POPC   G1M 1654   6.126   6.220   8.089  0.0840  0.9919 -0.0507
   98POPC   GL2 1655   6.306   5.880   7.876  0.0396  0.0062 -0.1963
   98POPC   G2P 1656   6.414   5.810   7.931 -0.1658 -0.0540  0.1410
   98POPC   G2M 1657   6.343   5.853   8.008  0.1466 -0.3673 -0.2941
   98POPC   C1A 1658   6.436   5.497   7.923 -0.1996 -0.0494 -0.0549
   98POPC   C2A 1659   6.678   5.145   7.794 -0.2639  0.0393  0.1436
   98POPC   C3A 1660   7.022   4.972   7.770 -0.2299 -0.3482  0.0410
   98POPC   C4A 1661   7.359   4.658   7.722  0.0233 -0.0430 -0.0110
   98POPC   C1B 1662   5.920   6.029   7.483 -0.1956 -0.0109 -0.1314
   98POPC   C2B 1663   5.655   6.213   7.199  0.1760  0.2687 -0.2628
   98POPC   D3B 1664   5.463   6.565   7.010 -0.2586 -0.3931  0.1086
   98POPC   C4B 1665   5.422   6.746   6.645  0.1666  0.0922 -0.0472
   98POPC   C5B 1666   5.317   7.064   6.256  0.3610  0.0883 -0.0575
   99POPC   NC3 1667   5.230   6.942   8.952  0.0786 -0.1587  0.2279
   99POPC   PO4 1668   5.142   7.018   8.336 -0.0312 -0.0265 -0.1073
   99POPC   GL1 1669   5.233   6.712   8.032 -0.1848  0.5079  0.4206
   99POPC   G1P 1670   5.193   6.768   7.910 -0.4675  0.1952  0.3627
   99POPC   G1M 1671   5.307   6.831   8.026  0.2410  0.2387 -0.1074
   99POPC   GL2 1672   5.338   6.971   7.730 -0.0555  0.0418  0.0460
   99POPC   G2P 1673   5.273   7.047   7.633 -0.0036  0.0815  0.0422
   99POPC   G2M 1674   5.456   7.009   7.664  0.1720 -0.5286  0.0912
   99POPC   C1A 1675   5.760   7.146   7.708 -0.3165  0.1271  0.2021
   99POPC   C2A 1676   6.104   7.248   7.490  0.1220 -0.0725 -0.0664
   99POPC   C3A 1677   6.284   7.457   7.077  0.0718 -0.0076 -0.2591
   99POPC   C4A 1678   6.303   7.699   6.730 -0.1312  0.2019  0.1610
   99POPC   C1B 1679   5.163   6.517   7.711 -0.0609 -0.1638 -0.0414
   99POPC   C2B 1680   5.134   6.224   7.369  0.2496 -0.2393 -0.1953
   99POPC   D3B 1681   5.163   6.189   6.914  0.1046 -0.1898 -0.2215
   99POPC   C4B 1682   4.733   6.138   6.782  0.3843 -0.2161 -0.1880
   99POPC   C5B 1683   4.260   5.883   6.769 -0.1131 -0.1054 -0.2513
  100POPC   NC3 1684   6.654   3.764   8.696  0.0820  0.1526  0.0099
  100POPC   PO4 1685   7.068   4.133   8.777 -0.2117 -0.1555 -0.1700
  100POPC   GL1 1686   6.880   3.952   8.265  0.2311 -0.1455 -0.0175
  100POPC   G1P 1687   6.984   3.864   8.299  0.2329 -0.1438 -0.0186
  100POPC   G1M 1688   6.784   3.939   8.365  0.5157 -0.3112  0.2435
  100POPC   GL2 1689   7.116   4.232   8.013  0.1363  0.4578 -0.0469
  100POPC   G2P 1690   7.228   4.277   7.942  0.1545  0.0232 -0.3098
  100POPC   G2M 1691   7.247   4.276   7.990  0.1549  0.5388  0.2015
  100POPC   C1A 1692   7.269   4.124   7.617 -0.1856  0.0920 -0.2000
  100POPC   C2A 1693   7.347   4.046   7.161  0.5335  0.1761 -0.0941
  100POPC   C3A 1694   7.535   4.135   6.847  0.1413 -0.0935 -0.0015
  100POPC   C4A 1695   7.605   4.173   6.454  0.1231  0.0974  0.0152
  100POPC   C1B 1696   7.025   3.706   7.783  0.0163 -0.1248  0.0586
  100POPC   C2B 1697   7.044   3.722   7.375  0.0066  0.1599 -0.4455
  100POPC   D3B 1698   7.009   3.707   6.835 -0.2271  0.3451 -0.0563
  100POPC   C4B 1699   7.016   4.086   6.485  0.0158 -0.0016 -0.0958
  100POPC   C5B 1700   7.227   4.202   6.103  0.1621 -0.1625 -0.3353
  101POPC   NC3 1701   7.587   2.800   8.520  0.1156 -0.2588  0.1999
  101POPC   PO4 1702   7.265   3.030   8.199 -0.1172 -0.3369  0.1341
  101POPC   GL1 1703   7.026   3.192   7.766  0.0743  0.0847  0.1624
  101POPC   G1P 1704   6.998   3.219   7.632 -0.0371  0.0141  0.1713
  101POPC   G1M 1705   7.099   3.143   7.658 -0.1904 -0.0188  0.0264
  101POPC   GL2 1706   6.846   2.904   7.644 -0.0917  0.1117  0.0596
  101POPC   G2P 1707   6.985   2.905   7.626 -0.1424  0.3902 -0.3844
  101POPC   G2M 1708   6.858   3.028   7.579 -0.1974  0.1156  0.0467
  101POPC   C1A 1709   6.508   2.962   7.424 -0.1645  0.1181  0.0876
  101POPC   C2A 1710   6.285   3.294   7.273 -0.1620  0.1440  0.0688
  101POPC   C3A 1711   5.952   3.451   7.289  0.1720  0.1820  0.1833
  101POPC   C4A 1712   5.716   3.715   7.290 -0.1939 -0.0760 -0.0829
  101POPC   C1B 1713   7.110   3.183   7.334 -0.0351 -0.1292  0.2319
  101POPC   C2B 1714   6.801   3.308   7.089 -0.1200  0.2534  0.0562
  101POPC   D3B 1715   6.442   3.309   6.737  0.1461 -0.4010 -0.0029
  101POPC   C4B 1716   6.513   3.228   6.433  0.0293 -0.1487 -0.0574
  101POPC   C5B 1717   6.567   3.328   5.989 -0.3981 -0.4578  0.0606
  102POPC   NC3 1718   6.214   1.614   8.763  0.2962  0.0466  0.1444
  102POPC   PO4 1719   6.253   1.663   8.191 -0.0901 -0.1187 -0.0356
  102POPC   GL1 1720   6.329   1.368   7.907 -0.3307 -0.3362 -0.0854
  102POPC   G1P 1721   6.398   1.255   7.953 -0.1142 -0.2921 -0.2913
  102POPC   G1M 1722   6.242   1.370   8.016  0.1272  0.4723  0.3069
  102POPC   GL2 1723   6.360   1.038   7.878 -0.3616  0.0682  0.1181
  102POPC   G2P 1724   6.373   0.983   7.751 -0.0870  0.3937 -0.0020
  102POPC   G2M 1725   6.484   0.976   7.895 -0.1910  0.3128 -0.1893
  102POPC   C1A 1726   6.244   1.027   7.437  0.0864 -0.0000 -0.0576
  102POPC   C2A 1727   6.043   0.842   7.014 -0.1288  0.1430  0.0799
  102POPC   C3A 1728   5.963   1.158   6.641 -0.0123 -0.2243 -0.1979
  102POPC   C4A 1729   5.904   0.994   6.257 -0.2733  0.0014  0.0325
  102POPC   C1B 1730   6.801   1.293   7.776  0.1222 -0.0688  0.0379
  102POPC   C2B 1731   7.185   1.226   7.584 -0.0958 -0.1415 -0.3971
  102POPC   D3B 1732   7.376   1.245   7.192 -0.2293 -0.1684 -0.4271
  102POPC   C4B 1733   7.092   1.456   6.870  0.0068 -0.0167  0.0583
  102POPC   C5B 1734   6.852   1.774   6.679  0.0405 -0.0315  0.3149
  103POPC   NC3 1735   9.861  11.711   8.539  0.0040  0.0332  0.0997
  103POPC   PO4 1736  10.377  11.445   8.387  0.4887  0.0743 -0.0709
  103POPC   GL1 1737  10.712  11.129   8.143 -0.2535 -0.2832  0.3255
  103POPC   G1P 1738  10.777  11.009   8.111 -0.0668 -0.0767 -0.1026
  103POPC   G1M 1739  10.605  11.110   8.055 -0.4381 -0.2478  0.5364
  103POPC   GL2 1740  10.447  11.028   7.948 -0.0890 -0.3660 -0.2755
  103POPC   G2P 1741  10.559  10.945   7.945  0.0782 -0.1460 -0.2413
  103POPC   G2M 1742  10.513  10.952   8.044 -0.3006 -0.2659 -0.0460
  103POPC   C1A 1743  10.279  11.008   7.506  0.1394  0.0926  0.2026
  103POPC   C2A 1744  10.180  10.871   7.088 -0.0364 -0.1242 -0.1341
  103POPC   C3A 1745  10.302  10.596   6.666  0.0114  0.3929  0.0233
  103POPC   C4A 1746  10.523  10.145   6.515 -0.0970  0.0525  0.1049
  103POPC   C1B 1747  10.859  10.710   8.011 -0.0228  0.0360 -0.0357
  103POPC   C2B 1748  10.847  10.507   7.635  0.0384  0.0217 -0.0039
  103POPC   D3B 1749  11.084  10.467   7.260 -0.1254  0.1630  0.1797
  103POPC   C4B 1750  11.276  10.784   7.093  0.1033 -0.2599  0.0362
  103POPC   C5B 1751  11.553  11.036   7.253 -0.3486 -0.1690 -0.3689
  104POPC   NC3 1752   4.455   9.107   8.816  0.1927  0.0816 -0.1958
  104POPC   PO4 1753   4.609   9.533   8.476 -0.0339 -0.1132 -0.0145
  104POPC   GL1 1754   4.684   9.464   7.983 -0.0990 -0.0220  0.2400
  104POPC   G1P 1755   4.787   9.373   8.010  0.0715  0.0950 -0.0010
  104POPC   G1M 1756   4.805   9.443   8.050 -0.3538 -0.1752  0.6752
  104POPC   GL2 1757   4.350   9.647   7.854 -0.0639 -0.2925  0.1696
  104POPC   G2P 1758   4.355   9.562   7.966  0.4327  0.2166  0.5638
  104POPC   G2M 1759   4.344   9.515   7.806  0.1844 -0.1840 -0.1761
  104POPC   C1A 1760   4.172  10.043   7.771 -0.0412  0.0980  0.0443
  104POPC   C2A 1761   3.857  10.447   7.707 -0.0678 -0.1366  0.1209
  104POPC   C3A 1762   3.391  10.683   7.511  0.1465 -0.1873  0.1550
  104POPC   C4A 1763   3.021  10.496   7.385  0.0604  0.2018 -0.0826
  104POPC   C1B 1764   5.089   9.410   7.727 -0.1445 -0.1364  0.1591
  104POPC   C2B 1765   5.577   9.269   7.799 -0.0634 -0.0550 -0.0765
  104POPC   D3B 1766   6.071   9.131   7.809  0.0400  0.0447  0.1512
  104POPC   C4B 1767   6.148   8.760   7.745 -0.1308  0.1068 -0.1738
  104POPC   C5B 1768   6.024   8.301   7.794  0.2354  0.0076  0.1805
  105POPC   NC3 1769   9.708   8.325   8.623  0.0129 -0.1313  0.0262
  105POPC   PO4 1770   9.438   8.769   8.452  0.1361  0.0422 -0.1231
  105POPC   GL1 1771   9.683   8.991   8.123 -0.0358  0.2309  0.1566
  105POPC   G1P 1772   9.732   9.093   8.206 -0.2937  0.2846  0.2459
  105POPC   G1M 1773   9.748   8.989   8.247 -0.0107  0.6820  0.1566
  105POPC   GL2 1774   9.482   8.902   7.904  0.1892 -0.3731  0.1784
  105POPC   G2P 1775   9.402   8.811   7.974  0.0438 -0.4207 -0.0439
  105POPC   G2M 1776   9.454   8.821   7.794 -0.4933  0.4113 -0.2765
  105POPC   C1A 1777   9.608   8.855   7.451  0.0601 -0.3149 -0.2826
  105POPC   C2A 1778   9.695   9.129   7.148 -0.2240  0.0969  0.0623
  105POPC   C3A 1779   9.831   9.290   6.788  0.0096  0.0405  0.1047
  105POPC   C4A 1780   9.727   9.394   6.344 -0.1322 -0.1677 -0.0424
  105POPC   C1B 1781   9.987   9.169   8.115 -0.0517  0.2641  0.0866
  105POPC   C2B 1782  10.120   9.506   7.946  0.0136 -0.1845  0.1122
  105POPC   D3B 1783  10.139   9.778   7.581  0.3642  0.0561  0.1001
  105POPC   C4B 1784  10.168  10.149   7.805  0.1735  0.0074 -0.1314
  105POPC   C5B 1785  10.376  10.539   7.776 -0.1283  0.2938 -0.0211
  106POPC   NC3 1786   0.471   2.580   8.210 -0.1176 -0.0472  0.0417
  106POPC   PO4 1787   0.948   2.541   8.487  0.0132  0.0515 -0.2749
  106POPC   GL1 1788   1.107   2.269   8.159 -0.0082  0.5408 -0.3643
  106POPC   G1P 1789   1.160   2.322   8.041  0.9241 -0.3657 -0.4210
  106POPC   G1M 1790   1.169   2.394   8.146  0.5747  0.3612  0.3025
  106POPC   GL2 1791   1.142   1.919   8.125 -0.3052  0.2732 -0.1190
  106POPC   G2P 1792   1.060   1.809   8.152 -0.0648  0.2018  0.3647
  106POPC   G2M 1793   1.056   1.831   8.058  0.1919 -0.2419 -0.1236
  106POPC   C1A 1794   1.049   1.619   7.670  0.0231 -0.3940  0.2529
  106POPC   C2A 1795   0.787   1.581   7.228  0.2902  0.0910  0.0625
  106POPC   C3A 1796   0.897   1.771   6.862 -0.0626  0.2868 -0.0702
  106POPC   C4A 1797   0.957   2.192   6.947  0.2064  0.0344  0.0077
  106POPC   C1B 1798   0.995   2.156   7.762  0.0540  0.0065  0.1737
  106POPC   C2B 1799   1.080   2.027   7.385  0.0080 -0.0182  0.2178
  106POPC   D3B 1800   1.360   1.965   7.114 -0.0300 -0.1190  0.0392
  106POPC   C4B 1801   1.743   2.117   6.815 -0.0084  0.0321  0.1658
  106POPC   C5B 1802   1.781   2.486   6.568 -0.1985 -0.2815 -0.0955
  107POPC   NC3 1803   3.032  11.468   8.639  0.2476  0.0173  0.2021
  107POPC   PO4 1804   2.879  11.971   8.566 -0.1201  0.0093 -0.0068
  107POPC   GL1 1805   2.739  12.061   8.077 -0.0319  0.0795  0.0247
  107POPC   G1P 1806   2.806  11.942   8.048 -0.3003 -0.1645  0.3613
  107POPC   G1M 1807   2.843  12.097   8.163  0.0662  0.1474 -0.1224
  107POPC   GL2 1808   2.612  11.815   8.174  0.0958  0.2984  0.2356
  107POPC   G2P 1809   2.524  11.862   8.273 -0.3193  0.0574 -0.0030
  107POPC   G2M 1810   2.494  11.890   8.157 -0.0193  0.1171  0.2183
  107POPC   C1A 1811   2.268  11.624   8.128  0.4448  0.1720 -0.3806
  107POPC   C2A 1812   2.180  11.308   7.853 -0.0290  0.1010  0.1082
  107POPC   C3A 1813   2.014  10.956   7.670 -0.0963  0.1701 -0.1541
  107POPC   C4A 1814   1.743  10.911   7.324  0.0100  0.1109  0.1862
  107POPC   C1B 1815   2.624   0.175   7.786 -0.0727 -0.0999 -0.2154
  107POPC   C2B 1816   2.500   0.136   7.487  0.0519 -0.0647  0.0139
  107POPC   D3B 1817   2.389   0.387   7.112  0.0654  0.3188  0.0152
  107POPC   C4B 1818   2.345   0.150   6.714 -0.1295  0.0941 -0.0286
  107POPC   C5B 1819   2.092  11.929   6.598 -0.2982 -0.4186  0.0624
  108POPC   NC3 1820   3.500  10.329   8.985  0.3328  0.2281 -0.3111
  108POPC   PO4 1821   3.548  10.630   8.418 -0.0449 -0.0493  0.0220
  108POPC   GL1 1822   3.518  10.239   8.066  0.0579 -0.1237 -0.2279
  108POPC   G1P 1823   3.499  10.112   8.122  0.2948 -0.1874 -0.2859
  108POPC   G1M 1824   3.545  10.241   8.204  0.1899 -0.1923 -0.2516
  108POPC   GL2 1825   3.292   9.973   8.103 -0.1786  0.1488  0.0558
  108POPC   G2P 1826   3.382   9.908   8.018 -0.1690  0.4125 -0.1409
  108POPC   G2M 1827   3.375  10.075   8.054  0.2457 -0.2708 -0.1342
  108POPC   C1A 1828   3.031  10.309   7.862 -0.1998 -0.1227  0.2291
  108POPC   C2A 1829   2.976  10.668   7.877 -0.0974 -0.0277 -0.3069
  108POPC   C3A 1830   2.987  11.025   7.691 -0.0932  0.0048  0.2365
  108POPC   C4A 1831   3.255  11.348   7.858  0.0546  0.1432 -0.3719
  108POPC   C1B 1832   3.437  10.100   7.668 -0.0636  0.2430 -0.1821
  108POPC   C2B 1833   3.679   9.925   7.381 -0.3091  0.2327  0.0241
  108POPC   D3B 1834   3.687   9.702   6.866 -0.0676 -0.1083  0.0032
  108POPC   C4B 1835   3.838   9.358   7.062  0.0063  0.3399  0.2956
  108POPC   C5B 1836   4.084   8.976   7.132 -0.2127  0.0231 -0.0601
  109POPC   NC3 1837   6.288   9.541   8.179 -0.2000  0.1464 -0.4465
  109POPC   PO4 1838   6.472  10.032   8.277  0.1737  0.2219  0.0820
  109POPC   GL1 1839   6.683   9.721   7.917  0.4503 -0.0097 -0.6540
  109POPC   G1P 1840   6.603   9.804   7.837 -0.1602  0.0352 -0.0353
  109POPC   G1M 1841   6.648   9.834   7.991  0.6312 -0.2884 -0.1202
  109POPC   GL2 1842   6.891   9.535   7.810  0.0285 -0.0365  0.1725
  109POPC   G2P 1843   6.943   9.566   7.937  0.2372 -0.4478  0.1980
  109POPC   G2M 1844   6.932   9.470   7.928  0.4987 -0.2720 -0.1041
  109POPC   C1A 1845   6.969   9.126   7.586 -0.0795  0.2342  0.1099
  109POPC   C2A 1846   7.236   8.719   7.333  0.1169 -0.0978 -0.1629
  109POPC   C3A 1847   7.432   8.344   7.387 -0.2171 -0.3241  0.2026
  109POPC   C4A 1848   7.646   8.118   7.183 -0.0041 -0.2819  0.0445
  109POPC   C1B 1849   6.354   9.590   7.669 -0.1524  0.1887 -0.1381
  109POPC   C2B 1850   6.064   9.343   7.367 -0.0966  0.1134  0.0903
  109POPC   D3B 1851   6.224   8.870   7.283  0.1774  0.0313 -0.1994
  109POPC   C4B 1852   6.024   8.771   6.943  0.0340  0.1556 -0.0618
  109POPC   C5B 1853   5.666   8.604   6.806 -0.0807  0.0665 -0.0225
  110POPC   NC3 1854   5.713   2.459   8.703  0.0387  0.0322 -0.0801
  110POPC   PO4 1855   6.207   2.606   8.351 -0.3290  0.1793  0.2999
  110POPC   GL1 1856   6.314   2.790   7.964  0.0207 -0.2516 -0.2791
  110POPC   G1P 1857   6.222   2.877   7.903 -0.1715 -0.0999  0.1971
  110POPC   G1M 1858   6.217   2.820   8.061  0.1229 -0.1374 -0.2098
  110POPC   GL2 1859   6.448   3.209   7.941  0.0957 -0.3798  0.2032
  110POPC   G2P 1860   6.564   3.286   7.951 -0.1001  0.0101 -0.2936
  110POPC   G2M 1861   6.474   3.227   8.077  0.2729  0.2765  0.1012
  110POPC   C1A 1862   6.576   3.550   7.632  0.1138 -0.1999 -0.2073
  110POPC   C2A 1863   6.565   3.714   7.235  0.2153 -0.0334  0.0546
  110POPC   C3A 1864   6.147   3.791   6.969  0.0130 -0.1742  0.1228
  110POPC   C4A 1865   6.064   3.626   6.532  0.0359  0.1474 -0.0941
  110POPC   C1B 1866   5.991   2.797   7.593 -0.4886  0.1751  0.0267
  110POPC   C2B 1867   5.906   2.623   7.133 -0.1445  0.3056 -0.0585
  110POPC   D3B 1868   6.046   2.257   6.931  0.1114  0.0248 -0.1722
  110POPC   C4B 1869   6.240   2.076   6.632  0.0790  0.2511  0.0457
  110POPC   C5B 1870   6.554   2.012   6.243 -0.0115 -0.0439 -0.1571
  111POPC   NC3 1871  11.825   8.439   8.847 -0.2355 -0.0277  0.4028
  111POPC   PO4 1872  12.117   7.936   8.804  0.1176  0.5424 -0.0035
  111POPC   GL1 1873  -0.011   8.030   8.361  0.2491  0.2425 -0.1540
  111POPC   G1P 1874   0.109   7.983   8.414 -0.1233 -0.2442  0.3069
  111POPC   G1M 1875  -0.006   7.977   8.490 -0.0367 -0.3594 -0.3683
  111POPC   GL2 1876   0.224   7.804   8.152  0.1603 -0.3501 -0.4429
  111POPC   G2P 1877   0.356   7.823   8.194  0.0887  0.1048 -0.4008
  111POPC   G2M 1878   0.330   7.713   8.151  0.3838 -0.1225  0.1955
  111POPC   C1A 1879   0.369   8.142   7.871 -0.2232  0.1397  0.1073
  111POPC   C2A 1880   0.588   8.461   7.732  0.0622  0.1422 -0.0794
  111POPC   C3A 1881   0.329   8.929   7.603  0.0330 -0.0420 -0.2696
  111POPC   C4A 1882   0.191   9.317   7.608  0.3180 -0.1048  0.2283
  111POPC   C1B 1883  11.995   8.043   7.967 -0.0597  0.0769 -0.3080
  111POPC   C2B 1884  11.806   7.827   7.601  0.0229 -0.2190  0.0771
  111POPC   D3B 1885  11.325   7.672   7.505  0.0905 -0.1762  0.0787
  111POPC   C4B 1886  11.230   7.170   7.449 -0.2672  0.3003  0.2166
  111POPC   C5B 1887  11.439   6.906   7.213 -0.0183  0.2376 -0.1655
  112POPC   NC3 1888   8.495   9.120   8.489  0.3151 -0.0542 -0.0900
  112POPC   PO4 1889   7.961   9.068   8.072 -0.5443 -0.1738 -0.1937
  112POPC   GL1 1890   8.002   9.259   7.686  0.4561 -0.1239  0.3403
  112POPC   G1P 1891   7.926   9.142   7.697 -0.2698  0.2932  0.1523
  112POPC   G1M 1892   7.908   9.156   7.673 -0.0766  0.3070  0.5750
  112POPC   GL2 1893   8.337   9.274   7.583 -0.3405  0.1518  0.2106
  112POPC   G2P 1894   8.281   9.153   7.626  0.1143 -0.0649  0.2234
  112POPC   G2M 1895   8.457   9.239   7.647 -0.2485  0.0706 -0.0004
  112POPC   C1A 1896   8.234   9.400   7.193  0.0389  0.0142 -0.1043
  112POPC   C2A 1897   8.070   9.390   6.783 -0.0398 -0.3971 -0.1179
  112POPC   C3A 1898   7.992   9.540   6.393  0.1103 -0.0713 -0.3816
  112POPC   C4A 1899   7.827   9.820   6.084 -0.0870  0.0979  0.1672
  112POPC   C1B 1900   8.012   9.734   7.641 -0.0470  0.1478 -0.2126
  112POPC   C2B 1901   7.619   9.938   7.482 -0.1751 -0.2904  0.2467
  112POPC   D3B 1902   7.226   9.665   7.329 -0.0910 -0.1523  0.1381
  112POPC   C4B 1903   7.338   9.311   7.048  0.0282 -0.0373 -0.0501
  112POPC   C5B 1904   6.955   9.007   7.033 -0.0930  0.1322  0.1612
  113POPC   NC3 1905  10.659   2.554   9.013  0.0385  0.0018  0.0234
  113POPC   PO4 1906  10.706   2.860   8.536  0.0474 -0.1026  0.2367
  113POPC   GL1 1907  10.892   2.870   8.115 -0.1628 -0.0717 -0.2151
  113POPC   G1P 1908  10.891   2.806   7.991  0.0783  0.1734 -0.3490
  113POPC   G1M 1909  10.782   2.795   8.157 -0.2668 -0.0332 -0.4130
  113POPC   GL2 1910  11.021   3.130   8.121  0.0253 -0.3267 -0.3185
  113POPC   G2P 1911  11.030   3.202   8.001  0.0092  0.5247  0.1480
  113POPC   G2M 1912  11.138   3.191   8.072 -0.2189  0.3537 -0.1080
  113POPC   C1A 1913  11.396   3.322   7.887 -0.1096  0.1920 -0.0987
  113POPC   C2A 1914  11.834   3.395   7.774  0.0741 -0.0178 -0.2892
  113POPC   C3A 1915   0.100   3.252   7.710 -0.1874 -0.0201  0.2479
  113POPC   C4A 1916   0.559   3.361   7.629 -0.2083 -0.1577  0.1937
  113POPC   C1B 1917  10.724   2.793   7.753 -0.0378  0.1330  0.1095
  113POPC   C2B 1918  10.669   2.512   7.477 -0.1580  0.0817  0.0902
  113POPC   D3B 1919  10.741   2.483   7.009  0.2177 -0.0730 -0.3107
  113POPC   C4B 1920  10.760   2.875   6.807  0.2734 -0.0999 -0.1378
  113POPC   C5B 1921  10.748   3.036   6.403  0.1272  0.3090  0.1478
  114POPC   NC3 1922   4.286   8.595   8.179  0.2658 -0.1231 -0.0421
  114POPC   PO4 1923   4.421   8.248   8.511 -0.1977 -0.0914  0.1220
  114POPC   GL1 1924   4.059   8.173   8.238 -0.0717  0.1651  0.2069
  114POPC   G1P 1925   3.966   8.275   8.264 -0.0077  0.2277  0.1932
  114POPC   G1M 1926   4.161   8.268   8.245  0.3801 -0.2927  0.1029
  114POPC   GL2 1927   3.942   8.346   7.974  0.3440  0.3712 -0.2764
  114POPC   G2P 1928   3.951   8.207   7.988 -0.1073  0.3236 -0.3834
  114POPC   G2M 1929   3.874   8.287   7.867  0.3818  0.4813 -0.3631
  114POPC   C1A 1930   4.256   8.235   7.622 -0.2657 -0.1316 -0.0172
  114POPC   C2A 1931   4.461   8.581   7.612  0.0676  0.2643  0.1308
  114POPC   C3A 1932   4.516   9.025   7.376  0.1211  0.1033 -0.0401
  114POPC   C4A 1933   4.662   9.393   7.387  0.2837 -0.3089 -0.0838
  114POPC   C1B 1934   4.117   7.891   7.989  0.1474  0.0231 -0.3313
  114POPC   C2B 1935   4.378   7.792   7.551  0.0001 -0.0927 -0.0923
  114POPC   D3B 1936   4.551   7.720   7.129  0.1989 -0.1672 -0.1922
  114POPC   C4B 1937   4.355   7.546   6.754 -0.0243 -0.0668  0.0351
  114POPC   C5B 1938   4.000   7.578   6.451 -0.2751  0.2157  0.1329
  115POPC   NC3 1939   1.519  11.256   8.570  0.1491  0.2071 -0.1306
  115POPC   PO4 1940   2.107  11.121   8.755  0.0414  0.2311  0.2463
  115POPC   GL1 1941   2.033  10.715   8.443  0.3603 -0.1192  0.3150
  115POPC   G1P 1942   2.015  10.647   8.564 -0.0756 -0.0048  0.3223
  115POPC   G1M 1943   2.062  10.822   8.529  0.1246  0.2913 -0.0918
  115POPC   GL2 1944   2.290  10.495   8.256 -0.2152 -0.1102 -0.6734
  115POPC   G2P 1945   2.195  10.593   8.286  0.0655 -0.0200  0.0092
  115POPC   G2M 1946   2.190  10.397   8.263 -0.2481 -0.0494 -0.1165
  115POPC   C1A 1947   2.244  10.475   7.823  0.0970 -0.2838  0.1996
  115POPC   C2A 1948   2.015  10.111   7.655 -0.0333 -0.1141  0.0099
  115POPC   C3A 1949   1.986   9.924   7.213 -0.2048 -0.2946  0.3789
  115POPC   C4A 1950   2.020  10.227   6.912 -0.0358  0.2223  0.0504
  115POPC   C1B 1951   1.721  10.476   8.018 -0.1111 -0.3150 -0.0910
  115POPC   C2B 1952   1.721  10.505   7.587 -0.0569 -0.1867  0.2067
  115POPC   D3B 1953   2.070  10.467   7.326  0.1660 -0.0595  0.2237
  115POPC   C4B 1954   2.534  10.648   7.447  0.2226  0.0013 -0.3150
  115POPC   C5B 1955   2.820  10.869   7.155  0.1687  0.1242 -0.3622
  116POPC   NC3 1956   3.273   3.382   8.519 -0.0772  0.1666  0.1909
  116POPC   PO4 1957   2.880   3.840   8.641  0.1649  0.1184  0.0496
  116POPC   GL1 1958   2.718   3.700   8.153 -0.0216  0.2931  0.0847
  116POPC   G1P 1959   2.612   3.712   8.062 -0.1258 -0.4251  0.0834
  116POPC   G1M 1960   2.641   3.606   8.222 -0.0042  0.6595  0.6352
  116POPC   GL2 1961   3.052   3.634   8.034 -0.1254 -0.1052 -0.2708
  116POPC   G2P 1962   3.054   3.707   8.153 -0.5851  0.0789 -0.3649
  116POPC   G2M 1963   3.073   3.725   7.929 -0.4925  0.0171 -0.2471
  116POPC   C1A 1964   2.852   3.323   7.730 -0.0268  0.3045 -0.0704
  116POPC   C2A 1965   2.846   2.951   7.505 -0.1108 -0.4268 -0.0478
  116POPC   C3A 1966   2.985   2.614   7.226 -0.0170 -0.1987 -0.1383
  116POPC   C4A 1967   2.789   2.389   6.887  0.0690 -0.2167 -0.0295
  116POPC   C1B 1968   2.788   3.813   7.636  0.2323  0.1718 -0.1805
  116POPC   C2B 1969   3.178   3.937   7.486 -0.1022  0.2819 -0.4380
  116POPC   D3B 1970   3.597   3.986   7.655 -0.1385 -0.0145 -0.3552
  116POPC   C4B 1971   3.882   3.569   7.724 -0.0879 -0.3798  0.0867
  116POPC   C5B 1972   4.181   3.328   7.591  0.1076 -0.2375  0.1391
  117POPC   NC3 1973  11.279  11.964   8.812  0.1010 -0.0928  0.0190
  117POPC   PO4 1974  11.329  11.455   8.681  0.0711  0.1663 -0.1663
  117POPC   GL1 1975  11.566  11.357   8.257  0.2867 -0.2511 -0.3513
  117POPC   G1P 1976  11.602  11.456   8.350  0.1891 -0.4241 -0.1235
  117POPC   G1M 1977  11.679  11.408   8.322 -0.0780  0.0756  0.0576
  117POPC   GL2 1978  11.862  11.411   8.228 -0.0852  0.0661  0.1360
  117POPC   G2P 1979  11.923  11.486   8.329  0.1147  0.4834 -0.2801
  117POPC   G2M 1980  11.768  11.407   8.332 -0.0601  0.3521  0.1730
  117POPC   C1A 1981  11.756  11.431   7.807 -0.0133 -0.3630  0.1782
  117POPC   C2A 1982  11.378  11.395   7.654 -0.0277  0.0097 -0.0043
  117POPC   C3A 1983  10.975  11.447   7.774  0.0279  0.0568 -0.1853
  117POPC   C4A 1984  10.752  11.715   8.003 -0.0900  0.3318 -0.1724
  117POPC   C1B 1985  11.440  11.003   7.961 -0.2171  0.2189 -0.1680
  117POPC   C2B 1986  11.054  10.951   7.579  0.1794  0.1071  0.0167
  117POPC   D3B 1987  10.752  10.864   7.230 -0.0528 -0.1023  0.2559
  117POPC   C4B 1988  10.917  11.013   6.862 -0.0079 -0.0418  0.0684
  117POPC   C5B 1989  10.930  10.912   6.464 -0.4338  0.2386 -0.1572
  118POPC   NC3 1990   9.983   4.575   8.504  0.4907 -0.0723  0.0442
  118POPC   PO4 1991  10.536   4.218   8.675 -0.2108  0.1290 -0.2634
  118POPC   GL1 1992  10.488   4.360   8.226  0.1826  0.1515  0.0791
  118POPC   G1P 1993  10.535   4.407   8.349 -0.2722 -0.3463  0.4725
  118POPC   G1M 1994  10.584   4.291   8.301 -0.2540 -0.1296  0.4078
  118POPC   GL2 1995  10.358   4.270   7.950 -0.0456  0.1242  0.1918
  118POPC   G2P 1996  10.337   4.385   7.873  0.1608 -0.2072 -0.3838
  118POPC   G2M 1997  10.275   4.264   7.838  0.6258  0.3257 -0.3562
  118POPC   C1A 1998  10.497   4.074   7.575 -0.0719  0.1960  0.2992
  118POPC   C2A 1999  10.408   3.770   7.349  0.0339  0.2157  0.1546
  118POPC   C3A 2000  10.243   3.557   6.880  0.0454  0.0846  0.2495
  118POPC   C4A 2001  10.007   3.342   6.542 -0.0154 -0.1516 -0.0697
  118POPC   C1B 2002  10.731   4.657   7.969 -0.0499 -0.0324  0.4492
  118POPC   C2B 2003  10.909   4.826   7.658 -0.0406 -0.3498 -0.2206
  118POPC   D3B 2004  11.192   4.754   7.182  0.0644 -0.1734  0.2104
  118POPC   C4B 2005  11.330   5.043   6.898 -0.4443 -0.2175 -0.1995
  118POPC   C5B 2006  11.484   5.107   6.557 -0.4200 -0.0629  0.3298
  119POPS   CNO 2007  10.237  10.380   8.755 -0.5329  0.1245  0.1586
  119POPS   CNP 2008  10.352  10.516   8.844 -0.6352  0.2713  0.0689
  119POPS   CNM 2009  10.077  10.300   8.665 -0.6216  0.0255  0.4027
  119POPS   PO4 2010  10.231  10.040   8.372  0.0708  0.0644 -0.1008
  119POPS   GL1 2011  10.442   9.873   8.178 -0.1241 -0.0980 -0.0920
  119POPS   G1P 2012  10.329   9.949   8.211 -0.2050 -0.5141  0.7418
  119POPS   G1M 2013  10.358   9.950   8.260  0.2587 -0.0186  0.2377
  119POPS   GL2 2014  10.664  10.210   7.997  0.3044 -0.1732 -0.1306
  119POPS   G2P 2015  10.689  10.318   7.912 -0.0690  0.2614  0.2813
  119POPS   G2M 2016  10.544  10.282   8.003  0.3115 -0.1800  0.2252
  119POPS   C1A 2017  10.621  10.100   7.494  0.4278  0.0805  0.1508
  119POPS   C2A 2018  10.912   9.980   7.098  0.1792 -0.0694  0.2615
  119POPS   C3A 2019  11.289  10.134   6.906 -0.2177 -0.5236  0.2136
  119POPS   C4A 2020  11.684  10.265   6.841 -0.0430  0.2763 -0.4149
  119POPS   C1B 2021  10.562   9.589   7.792  0.1323 -0.0073  0.3034
  119POPS   C2B 2022  10.981   9.483   7.543  0.4300  0.1433 -0.0626
  119POPS   D3B 2023  10.986   9.508   7.187 -0.3056 -0.0072  0.1472
  119POPS   C4B 2024  11.100   9.605   6.791  0.0055  0.0843  0.1254
  119POPS   C5B 2025  10.967   9.988   6.514 -0.0074  0.1327  0.0345
  120POPS   CNO 2026   1.502   5.400   8.235 -0.3314 -0.3014 -0.8005
  120POPS   CNP 2027   1.341   5.503   8.294  0.3873  0.2868  0.3250
  120POPS   CNM 2028   1.633   5.249   8.223  0.1503  0.0406 -0.1324
  120POPS   PO4 2029   1.832   5.418   8.330 -0.1125  0.0519 -0.0120
  120POPS   GL1 2030   1.966   5.548   8.029  0.2658  0.2410  0.0268
  120POPS   G1P 2031   2.053   5.560   7.920  0.1830  0.0579 -0.0614
  120POPS   G1M 2032   1.854   5.578   7.950  0.2001 -0.1478 -0.0376
  120POPS   GL2 2033   2.274   5.583   7.956  0.0607  0.0476  0.2979
  120POPS   G2P 2034   2.369   5.669   8.012 -0.0999  0.4701 -0.0521
  120POPS   G2M 2035   2.380   5.611   7.869 -0.0069 -0.6262 -0.0350
  120POPS   C1A 2036   2.593   5.481   7.672  0.0970  0.0267  0.2274
  120POPS   C2A 2037   2.919   5.274   7.521 -0.1111  0.0336 -0.2542
  120POPS   C3A 2038   3.096   5.063   7.139 -0.1021  0.2976 -0.2234
  120POPS   C4A 2039   3.199   4.741   6.901  0.1321  0.0800  0.1310
  120POPS   C1B 2040   1.860   5.780   7.629  0.1613 -0.1561 -0.0397
  120POPS   C2B 2041   1.863   5.803   7.175 -0.3692 -0.2818 -0.3411
  120POPS   D3B 2042   1.714   6.109   6.910 -0.0105  0.3592  0.0302
  120POPS   C4B 2043   1.325   6.319   6.945  0.1694  0.0479  0.2245
  120POPS   C5B 2044   0.974   6.662   7.047  0.0745 -0.1970 -0.1506
  121POPS   CNO 2045   6.160  10.346   8.472 -0.3374  0.0509 -0.1277
  121POPS   CNP 2046   6.079  10.163   8.477 -0.2579  0.0092 -0.3184
  121POPS   CNM 2047   6.310  10.431   8.371 -0.1441 -0.0870  0.0399
  121POPS   PO4 2048   6.093  10.634   8.260 -0.2027  0.3672  0.2627
  121POPS   GL1 2049   6.142  10.516   7.987 -0.4346  0.2724  0.1859
  121POPS   G1P 2050   6.093  10.467   7.865 -0.1480 -0.4700  0.3484
  121POPS   G1M 2051   6.072  10.618   7.921 -0.4904  0.3073  0.2986
  121POPS   GL2 2052   6.454  10.389   7.922 -0.4205 -0.0453  0.0995
  121POPS   G2P 2053   6.530  10.333   8.026 -0.4941 -0.1203  0.1135
  121POPS   G2M 2054   6.586  10.391   7.875 -0.1896 -0.0653  0.7017
  121POPS   C1A 2055   6.524  10.075   7.632 -0.1655 -0.1051  0.0738
  121POPS   C2A 2056   6.732   9.792   7.396  0.0231  0.3038 -0.1235
  121POPS   C3A 2057   6.614   9.369   7.191 -0.3736  0.0932  0.2751
  121POPS   C4A 2058   6.427   9.137   6.930 -0.1015  0.2157 -0.3380
  121POPS   C1B 2059   6.188  10.437   7.433 -0.0859  0.0559 -0.0629
  121POPS   C2B 2060   6.096  10.339   7.012  0.0875 -0.3086  0.0282
  121POPS   D3B 2061   5.667  10.410   6.842  0.0634 -0.1441  0.1499
  121POPS   C4B 2062   5.578  10.007   6.694  0.1183  0.0582 -0.2298
  121POPS   C5B 2063   5.547   9.574   6.649 -0.1670 -0.2327  0.0229
  122POPS   CNO 2064   6.192   5.554   8.401 -0.1223  0.3458  0.7774
  122POPS   CNP 2065   6.254   5.736   8.458  0.0415  0.4610  0.2601
  122POPS   CNM 2066   6.011   5.476   8.364  0.3612 -0.4496 -0.1442
  122POPS   PO4 2067   6.184   5.223   8.308  0.0325 -0.0523 -0.1846
  122POPS   GL1 2068   6.159   5.125   8.019  0.5244 -0.5051 -0.0660
  122POPS   G1P 2069   6.197   5.028   7.924  0.3045 -0.7787  0.1162
  122POPS   G1M 2070   6.256   5.209   7.963 -0.0425  0.3311  0.1237
  122POPS   GL2 2071   5.863   5.218   7.937 -0.4235  0.2806 -0.0854
  122POPS   G2P 2072   5.936   5.215   7.818 -0.2318 -0.5177  0.0241
  122POPS   G2M 2073   5.791   5.118   7.871 -0.2247  0.1271 -0.0742
  122POPS   C1A 2074   6.101   5.163   7.551 -0.0437  0.1775  0.2310
  122POPS   C2A 2075   6.455   5.063   7.329 -0.4572  0.3447 -0.0884
  122POPS   C3A 2076   6.880   5.074   7.178 -0.1248 -0.1287  0.3509
  122POPS   C4A 2077   7.224   5.084   6.818  0.3236  0.2230 -0.2660
  122POPS   C1B 2078   6.378   4.804   7.859  0.2502 -0.0000  0.2834
  122POPS   C2B 2079   6.728   4.678   7.553 -0.1547  0.2237  0.1108
  122POPS   D3B 2080   7.148   4.643   7.180  0.2344 -0.2027  0.2041
  122POPS   C4B 2081   7.039   4.430   6.891 -0.1939 -0.1066 -0.1903
  122POPS   C5B 2082   7.020   4.653   6.461 -0.0373  0.0615 -0.0462
  123POPS   CNO 2083   7.020   8.221   8.229 -0.2985  0.0803 -0.4188
  123POPS   CNP 2084   6.880   8.081   8.200  0.0615 -0.4221  0.1443
  123POPS   CNM 2085   6.993   8.403   8.307 -0.1981 -0.1732  0.2411
  123POPS   PO4 2086   7.319   8.507   8.247  0.2658 -0.1759  0.0377
  123POPS   GL1 2087   7.421   8.538   7.941  0.2682 -0.2447  0.3084
  123POPS   G1P 2088   7.438   8.454   7.831  0.2107  0.1218  0.0086
  123POPS   G1M 2089   7.537   8.461   7.957  0.6108  0.2245  0.1847
  123POPS   GL2 2090   7.507   8.194   7.844  0.1378 -0.2989 -0.1359
  123POPS   G2P 2091   7.438   8.311   7.810 -0.1785 -0.3818  0.1851
  123POPS   G2M 2092   7.572   8.293   7.769 -0.0488  0.0341  0.1237
  123POPS   C1A 2093   7.784   7.899   7.797  0.0950 -0.1411 -0.0466
  123POPS   C2A 2094   8.158   8.017   7.554  0.1935  0.1256  0.0757
  123POPS   C3A 2095   8.148   7.882   7.148  0.3316  0.0915  0.0725
  123POPS   C4A 2096   8.111   7.491   7.026 -0.0320  0.2354  0.0074
  123POPS   C1B 2097   7.720   8.724   7.664 -0.2509  0.1678 -0.2964
  123POPS   C2B 2098   8.223   8.781   7.649  0.2217 -0.2591 -0.0658
  123POPS   D3B 2099   8.652   8.899   7.512 -0.2392  0.0894  0.2008
  123POPS   C4B 2100   8.732   9.356   7.233 -0.1678 -0.1327 -0.0851
  123POPS   C5B 2101   8.902   9.579   6.953  0.2021  0.2041  0.1308
  124POPS   CNO 2102   3.972   7.561   8.666  0.2033 -0.2206 -0.1678
  124POPS   CNP 2103   3.849   7.417   8.730  0.0871 -0.2232 -0.3909
  124POPS   CNM 2104   4.067   7.728   8.609  0.0485  0.0176  0.2454
  124POPS   PO4 2105   3.774   7.795   8.601 -0.1128 -0.0356  0.2988
  124POPS   GL1 2106   3.664   7.809   8.256 -0.0092 -0.0422  0.6635
  124POPS   G1P 2107   3.555   7.895   8.275 -0.0964  0.2343 -0.6233
  124POPS   G1M 2108   3.684   7.755   8.384 -0.2270 -0.8836  0.3716
  124POPS   GL2 2109   3.808   7.491   8.090  0.6498  0.4178  0.3031
  124POPS   G2P 2110   3.912   7.575   8.047  0.1519  0.6973 -0.4521
  124POPS   G2M 2111   3.789   7.539   7.960  0.2550 -0.4032  0.0252
  124POPS   C1A 2112   3.454   7.177   7.840 -0.2181 -0.0248 -0.0714
  124POPS   C2A 2113   3.118   7.122   7.545 -0.0578  0.0056 -0.4900
  124POPS   C3A 2114   2.703   7.028   7.280  0.2920 -0.0059 -0.0787
  124POPS   C4A 2115   2.658   6.601   7.114  0.2270 -0.0642  0.2333
  124POPS   C1B 2116   3.662   7.879   7.809 -0.0523 -0.0772  0.0041
  124POPS   C2B 2117   3.863   7.830   7.506  0.0660 -0.0297 -0.3676
  124POPS   D3B 2118   3.986   7.579   7.128  0.3916 -0.5714  0.0286
  124POPS   C4B 2119   3.812   7.405   6.878  0.0125 -0.3772 -0.0297
  124POPS   C5B 2120   3.484   7.124   7.054  0.1118 -0.0374 -0.0800
  125POPS   CNO 2121   6.806  10.429   8.573  0.1062  0.0030  0.1638
  125POPS   CNP 2122   6.841  10.486   8.762 -0.4138 -0.5578  0.4463
  125POPS   CNM 2123   6.689  10.475   8.418  0.3938 -0.0894 -0.0843
  125POPS   PO4 2124   6.902  10.490   8.211 -0.0487  0.0551 -0.0915
  125POPS   GL1 2125   6.957  10.467   7.942 -0.1255  0.3471 -0.2441
  125POPS   G1P 2126   7.072  10.393   7.910 -0.4679 -0.2978 -0.0800
  125POPS   G1M 2127   6.896  10.397   7.837 -0.8919  0.2552  0.2245
  125POPS   GL2 2128   6.992  10.140   7.829  0.0797 -0.1271 -0.1836
  125POPS   G2P 2129   6.883  10.219   7.867  0.0436 -0.2364 -0.0554
  125POPS   G2M 2130   6.974  10.023   7.904 -0.2957 -0.0233 -0.1008
  125POPS   C1A 2131   7.106  10.180   7.404  0.2103  0.2464  0.0694
  125POPS   C2A 2132   7.458  10.332   7.166  0.1220  0.1891  0.0234
  125POPS   C3A 2133   7.824  10.760   7.239 -0.2793 -0.2746 -0.0671
  125POPS   C4A 2134   8.246  10.937   7.168 -0.0651 -0.1679 -0.4009
  125POPS   C1B 2135   6.949  10.596   7.534 -0.2696  0.0512 -0.2618
  125POPS   C2B 2136   7.042  10.632   7.113  0.0382 -0.0076 -0.2217
  125POPS   D3B 2137   7.250  10.703   6.750  0.0796  0.1733  0.0922
  125POPS   C4B 2138   7.620  10.744   6.729 -0.1893 -0.1697 -0.2301
  125POPS   C5B 2139   7.877  10.851   6.328 -0.3093  0.0927 -0.3887
  126POPS   CNO 2140   4.222   1.661   8.251 -0.1901  0.1583 -0.3155
  126POPS   CNP 2141   4.395   1.677   8.153  0.1121 -0.4211  0.0997
  126POPS   CNM 2142   4.096   1.582   8.386  0.3040 -0.3714 -0.1460
  126POPS   PO4 2143   3.976   1.761   8.169 -0.2786  0.0366 -0.1700
  126POPS   GL1 2144   3.941   1.765   7.762 -0.2448 -0.3480  0.0954
  126POPS   G1P 2145   3.970   1.650   7.687 -0.1277 -0.1153 -0.2239
  126POPS   G1M 2146   3.933   1.731   7.626 -0.4954  0.2857 -0.0648
  126POPS   GL2 2147   4.042   2.068   7.465 -0.1197 -0.3801  0.1697
  126POPS   G2P 2148   4.178   2.060   7.498  0.0937  0.0999 -0.4764
  126POPS   G2M 2149   4.104   2.082   7.340 -0.0812 -0.0194  0.2225
  126POPS   C1A 2150   3.656   2.378   7.416 -0.0973 -0.0261  0.0161
  126POPS   C2A 2151   3.481   2.648   7.107 -0.1785  0.0672 -0.2860
  126POPS   C3A 2152   3.147   2.738   6.776 -0.1458 -0.0509  0.1542
  126POPS   C4A 2153   3.128   2.613   6.352 -0.0733 -0.1037 -0.0439
  126POPS   C1B 2154   3.922   1.557   7.404  0.0119  0.0522  0.1266
  126POPS   C2B 2155   4.169   1.331   6.979 -0.1055  0.1081  0.0814
  126POPS   D3B 2156   4.312   1.182   6.580 -0.4696 -0.1148 -0.1289
  126POPS   C4B 2157   4.088   1.403   6.322 -0.1629  0.1778 -0.0072
  126POPS   C5B 2158   3.927   1.649   6.021  0.2153 -0.1605  0.1766
  127POPS   CNO 2159   1.719   0.435   8.684  0.2035 -0.0073 -0.1185
  127POPS   CNP 2160   1.649   0.595   8.587 -0.0467  0.3361  0.6025
  127POPS   CNM 2161   1.895   0.341   8.676  0.0550 -0.3380  0.3061
  127POPS   PO4 2162   1.715   0.112   8.708 -0.1167 -0.1608  0.0237
  127POPS   GL1 2163   1.876   0.078   8.343  0.0521  0.0066  0.4311
  127POPS   G1P 2164   1.755   0.133   8.301  0.0180  0.3339  0.9116
  127POPS   G1M 2165   1.787  -0.016   8.398 -0.4534  0.5583  0.6051
  127POPS   GL2 2166   1.738   0.262   8.117  0.0154  0.0111  0.1953
  127POPS   G2P 2167   1.851   0.337   8.083 -0.1503 -0.0036 -0.4437
  127POPS   G2M 2168   1.723   0.355   8.014  0.1861 -0.2635 -0.0867
  127POPS   C1A 2169   2.032   0.420   7.789 -0.0726 -0.3748  0.0175
  127POPS   C2A 2170   1.935   0.387   7.383  0.0649 -0.1834  0.0157
  127POPS   C3A 2171   1.956   0.371   6.844 -0.1988  0.1427  0.1221
  127POPS   C4A 2172   2.056   0.216   6.342  0.1908  0.0540  0.1051
  127POPS   C1B 2173   2.134   0.005   7.925  0.2638 -0.1723  0.0802
  127POPS   C2B 2174   2.254  11.859   7.607 -0.1255  0.0783 -0.3582
  127POPS   D3B 2175   2.324  11.581   7.276 -0.0748 -0.0455 -0.1305
  127POPS   C4B 2176   2.519  11.799   6.932 -0.1972 -0.0264  0.2868
  127POPS   C5B 2177   2.569  11.791   6.543 -0.0463  0.1009 -0.1762
  128POPS   CNO 2178   0.757  12.009   8.711  0.3562  0.1804  0.1990
  128POPS   CNP 2179   0.744  11.861   8.845 -0.0733 -0.3986 -0.4438
  128POPS   CNM 2180   0.739  12.154   8.574 -0.2217 -0.4698 -0.4571
  128POPS   PO4 2181   0.817  12.029   8.404 -0.1384 -0.2998 -0.0237
  128POPS   GL1 2182   0.848   0.055   8.072 -0.2233 -0.0620  0.0602
  128POPS   G1P 2183   0.878   0.060   7.936  0.1174  0.3965  0.1376
  128POPS   G1M 2184   0.957   0.129   8.023 -0.0896 -0.0758  0.3271
  128POPS   GL2 2185   0.686   0.333   8.053 -0.0075  0.2012 -0.3588
  128POPS   G2P 2186   0.604   0.414   7.973  0.0927  0.3079 -0.3546
  128POPS   G2M 2187   0.585   0.346   8.149  0.5111  0.3757  0.1912
  128POPS   C1A 2188   0.785   0.468   7.618 -0.0998  0.4213  0.1471
  128POPS   C2A 2189   0.700   0.774   7.486  0.1638  0.1248 -0.0603
  128POPS   C3A 2190   0.540   1.148   7.347  0.1653  0.1807  0.1564
  128POPS   C4A 2191   0.081   1.272   7.371 -0.0583  0.1456 -0.2614
  128POPS   C1B 2192   1.105   0.040   7.682 -0.2172 -0.0155 -0.1509
  128POPS   C2B 2193   1.208  11.885   7.327  0.1440 -0.3363  0.3642
  128POPS   D3B 2194   1.217  11.920   6.906 -0.2184 -0.1328  0.0624
  128POPS   C4B 2195   1.561  11.661   6.815  0.2089  0.0739 -0.0247
  128POPS   C5B 2196   1.871  11.485   7.014  0.0574 -0.0012 -0.0252
  129POPS   CNO 2197   0.677   4.192   8.265  0.0573  0.4385  0.4780
  129POPS   CNP 2198   0.535   4.329   8.294 -0.3559  0.1965 -0.2656
  129POPS   CNM 2199   0.746   4.007   8.294 -0.1288  0.1737 -0.5741
  129POPS   PO4 2200   1.016   4.074   8.203 -0.1068 -0.2304  0.1962
  129POPS   GL1 2201   1.090   4.029   7.959 -0.5352  0.3450  0.0411
  129POPS   G1P 2202   1.003   3.981   7.860 -0.4718  0.2041  0.0539
  129POPS   G1M 2203   0.984   3.991   8.042 -0.1351  0.0019  0.4155
  129POPS   GL2 2204   1.447   4.065   7.953  0.0580  0.1513  0.2616
  129POPS   G2P 2205   1.567   4.128   7.919  0.2215 -0.2248  0.1174
  129POPS   G2M 2206   1.550   3.982   7.998  0.0504  0.0032  0.0142
  129POPS   C1A 2207   1.718   4.236   7.621 -0.1027  0.0781  0.0613
  129POPS   C2A 2208   1.863   4.397   7.269  0.2853  0.1140 -0.2000
  129POPS   C3A 2209   1.729   4.712   6.986 -0.2309  0.0278 -0.2945
  129POPS   C4A 2210   1.538   4.924   6.684 -0.2270 -0.0053 -0.0660
  129POPS   C1B 2211   1.188   4.440   7.710  0.0915  0.2218  0.0565
  129POPS   C2B 2212   1.413   4.555   7.313  0.4716  0.2222  0.1998
  129POPS   D3B 2213   1.223   4.868   7.031 -0.1371 -0.0117 -0.2611
  129POPS   C4B 2214   1.072   5.261   6.860 -0.1810 -0.0353  0.0513
  129POPS   C5B 2215   0.904   5.792   6.724 -0.1565  0.0131  0.0383
  130POPS   CNO 2216   2.021   4.838   8.394 -0.1229 -0.0703 -0.2854
  130POPS   CNP 2217   2.125   4.882   8.559 -0.1357 -0.0530 -0.2823
  130POPS   CNM 2218   1.872   4.915   8.286 -0.1971  0.3193  0.0779
  130POPS   PO4 2219   1.831   4.641   8.191 -0.0515  0.0318 -0.0872
  130POPS   GL1 2220   1.641   4.654   7.929 -0.5660 -0.0699 -0.1301
  130POPS   G1P 2221   1.709   4.623   7.811 -0.2286 -0.1245  0.0728
  130POPS   G1M 2222   1.666   4.518   7.954 -0.1394  0.0112 -0.0782
  130POPS   GL2 2223   1.417   4.886   7.935  0.2092  0.2215  0.2429
  130POPS   G2P 2224   1.407   5.007   7.865 -0.7428 -0.0212 -0.1196
  130POPS   G2M 2225   1.546   4.922   7.895  0.1982  0.0751  0.0682
  130POPS   C1A 2226   1.275   5.045   7.581  0.0283  0.0929  0.1295
  130POPS   C2A 2227   1.044   5.292   7.376  0.0993  0.0643 -0.1430
  130POPS   C3A 2228   0.819   5.668   7.180  0.2629 -0.0149 -0.0214
  130POPS   C4A 2229   0.372   5.854   7.290  0.2103  0.5672  0.2727
  130POPS   C1B 2230   1.767   4.762   7.542 -0.1389  0.0963 -0.0112
  130POPS   C2B 2231   1.973   5.031   7.242 -0.2295 -0.0559 -0.0636
  130POPS   D3B 2232   2.094   5.426   7.369  0.3092 -0.2683 -0.0380
  130POPS   C4B 2233   2.462   5.407   7.159  0.0450  0.1781  0.2937
  130POPS   C5B 2234   2.857   5.502   6.988  0.2302 -0.4516  0.1736
  131POPS   CNO 2235   2.237   1.520   8.679 -0.2043 -0.1936  0.1608
  131POPS   CNP 2236   2.344   1.462   8.837  0.4710  0.1884 -0.1309
  131POPS   CNM 2237   2.135   1.668   8.592 -0.5113 -0.3014  0.3338
  131POPS   PO4 2238   1.943   1.450   8.606  0.0156 -0.0307  0.2244
  131POPS   GL1 2239   1.879   1.469   8.273  0.4079  0.0142 -0.1413
  131POPS   G1P 2240   1.856   1.577   8.186  0.0360  0.1792  0.1484
  131POPS   G1M 2241   1.947   1.575   8.335 -0.3333  0.1424  0.5336
  131POPS   GL2 2242   2.191   1.566   8.149  0.3670  0.2945  0.4929
  131POPS   G2P 2243   2.199   1.700   8.111 -0.4535  0.1521 -0.3744
  131POPS   G2M 2244   2.215   1.625   8.024 -0.0768 -0.1572  0.1723
  131POPS   C1A 2245   2.155   1.903   7.825 -0.0740 -0.0419 -0.3664
  131POPS   C2A 2246   1.967   2.273   7.653 -0.2316 -0.0207 -0.0726
  131POPS   C3A 2247   2.160   2.644   7.571  0.4419  0.0521 -0.0698
  131POPS   C4A 2248   2.481   2.609   7.200  0.3482  0.2706 -0.0462
  131POPS   C1B 2249   1.726   1.531   7.881  0.1589 -0.1341  0.1826
  131POPS   C2B 2250   1.952   1.408   7.456  0.2651 -0.1559  0.0596
  131POPS   D3B 2251   2.156   1.286   7.179  0.1940 -0.2328 -0.0276
  131POPS   C4B 2252   2.400   1.054   7.390  0.0729 -0.0603  0.3132
  131POPS   C5B 2253   2.439   0.618   7.559 -0.1307  0.0888 -0.2409
  132POPS   CNO 2254   8.209   1.701   8.895  0.1780  0.1084 -0.4304
  132POPS   CNP 2255   8.264   1.546   9.009 -0.1262  0.1113 -0.2760
  132POPS   CNM 2256   8.051   1.817   8.857  0.0467 -0.0478 -0.3692
  132POPS   PO4 2257   8.285   1.928   8.664  0.1617  0.0773 -0.4656
  132POPS   GL1 2258   8.342   1.846   8.386  0.0571  0.1013  0.0322
  132POPS   G1P 2259   8.383   1.967   8.328  0.3170 -0.0168 -0.0390
  132POPS   G1M 2260   8.226   1.909   8.434  0.0605  0.1774 -0.0572
  132POPS   GL2 2261   8.573   1.599   8.231  0.1951  0.1817  0.5414
  132POPS   G2P 2262   8.709   1.622   8.207  0.2824 -0.0870  0.7539
  132POPS   G2M 2263   8.652   1.494   8.279  0.1123 -0.0656  0.1581
  132POPS   C1A 2264   8.841   1.703   7.998  0.0708 -0.2227  0.0278
  132POPS   C2A 2265   9.260   1.713   7.822 -0.2136 -0.3311  0.1888
  132POPS   C3A 2266   9.498   1.916   7.523 -0.2093  0.3132  0.0805
  132POPS   C4A 2267   9.860   1.814   7.349 -0.2444  0.2089 -0.2259
  132POPS   C1B 2268   8.344   1.921   7.923 -0.3364  0.1022  0.0378
  132POPS   C2B 2269   8.471   1.658   7.534 -0.0110 -0.0124 -0.1911
  132POPS   D3B 2270   8.559   1.807   7.105  0.1799 -0.0479 -0.1897
  132POPS   C4B 2271   8.448   1.530   6.841  0.3289 -0.1471  0.0586
  132POPS   C5B 2272   8.395   1.522   6.359 -0.0560 -0.3085  0.1230
  133POPS   CNO 2273  11.906   2.812   8.606  0.2074 -0.0997 -0.1697
  133POPS   CNP 2274  11.837   2.999   8.600 -0.0435 -0.1457  0.6590
  133POPS   CNM 2275  11.878   2.617   8.570  0.0138 -0.1108  0.0284
  133POPS   PO4 2276   0.068   2.726   8.460 -0.3347  0.0069  0.0064
  133POPS   GL1 2277  12.119   2.649   8.150  0.2047 -0.2675 -0.0493
  133POPS   G1P 2278  11.994   2.710   8.140  0.2637 -0.1729 -0.2371
  133POPS   G1M 2279  12.123   2.776   8.091 -0.4133  0.3267  1.0250
  133POPS   GL2 2280  11.868   2.484   7.988  0.0873 -0.2102 -0.1678
  133POPS   G2P 2281  11.825   2.488   7.855  0.1392  0.0291 -0.1794
  133POPS   G2M 2282  11.752   2.534   8.048  0.2288  0.3447 -0.3357
  133POPS   C1A 2283  11.650   2.387   7.554 -0.2834  0.1239  0.1399
  133POPS   C2A 2284  11.659   2.224   7.226  0.1455 -0.1177  0.0911
  133POPS   C3A 2285  11.689   2.015   6.876 -0.1285 -0.3177 -0.2323
  133POPS   C4A 2286  11.803   1.668   6.570 -0.0615 -0.4104 -0.1686
  133POPS   C1B 2287   0.104   2.734   7.778  0.1631 -0.0832  0.1324
  133POPS   C2B 2288   0.450   2.850   7.581  0.3019 -0.1396 -0.0228
  133POPS   D3B 2289   0.530   2.987   7.143  0.1217 -0.2256 -0.2780
  133POPS   C4B 2290   0.739   2.668   6.708  0.3745  0.2344 -0.2200
  133POPS   C5B 2291   1.004   2.421   6.436  0.2454 -0.2521  0.0854
  134POPS   CNO 2292   5.452  11.945   8.901 -0.3517  0.2102 -0.3263
  134POPS   CNP 2293   5.547  12.002   9.067  0.0463 -0.4713 -0.3007
  134POPS   CNM 2294   5.412  11.775   8.804  0.4000 -0.3659  0.3011
  134POPS   PO4 2295   5.197  11.951   8.606 -0.0123  0.0022  0.3989
  134POPS   GL1 2296   5.255  11.771   8.278  0.5927  0.3918 -0.1605
  134POPS   G1P 2297   5.244  11.640   8.326 -0.2007  0.4619 -0.0782
  134POPS   G1M 2298   5.278  11.744   8.414  0.4462 -0.6945 -0.3070
  134POPS   GL2 2299   5.516  11.840   8.133  0.0567 -0.2476 -0.2597
  134POPS   G2P 2300   5.378  11.817   8.141  0.0869 -0.2894  0.5684
  134POPS   G2M 2301   5.418  11.923   8.189  0.3729  0.2645 -0.4340
  134POPS   C1A 2302   5.646  12.029   7.783 -0.1606  0.1397 -0.0559
  134POPS   C2A 2303   5.618   0.067   7.310 -0.1055 -0.1434 -0.1248
  134POPS   C3A 2304   5.190   0.305   7.222  0.1303  0.1196  0.2004
  134POPS   C4A 2305   4.863   0.627   7.204 -0.0050 -0.5272 -0.0481
  134POPS   C1B 2306   5.111  11.542   7.898 -0.4237 -0.0757  0.0468
  134POPS   C2B 2307   5.107  11.261   7.571 -0.0686 -0.0945  0.2241
  134POPS   D3B 2308   5.039  11.112   7.214  0.0441 -0.0310  0.1233
  134POPS   C4B 2309   4.964  10.686   7.173  0.0913 -0.1500 -0.3913
  134POPS   C5B 2310   4.899  10.256   7.188 -0.0175 -0.0614 -0.1987
  135POPS   CNO 2311   0.400  11.701   8.594 -0.0632  0.1734  0.4161
  135POPS   CNP 2312   0.200  11.710   8.582 -0.0616 -0.3952 -0.5177
  135POPS   CNM 2313   0.597  11.680   8.567  0.0272  0.9647  0.3212
  135POPS   PO4 2314   0.540  11.415   8.721  0.1828  0.4598  0.2565
  135POPS   GL1 2315   0.523  11.304   8.294 -0.3892 -0.5653 -0.2363
  135POPS   G1P 2316   0.507  11.245   8.168 -0.1923  0.2278 -0.6668
  135POPS   G1M 2317   0.388  11.333   8.273 -0.2975  0.0411 -0.0780
  135POPS   GL2 2318   0.462  10.943   8.308 -0.4836  0.3872  0.0524
  135POPS   G2P 2319   0.541  10.966   8.421  0.2979 -0.0576 -0.3541
  135POPS   G2M 2320   0.416  10.838   8.389  0.2654 -0.1864 -0.1983
  135POPS   C1A 2321   0.393  10.813   7.829  0.2147 -0.1546 -0.1019
  135POPS   C2A 2322   0.339  11.094   7.467 -0.0527 -0.0721  0.2258
  135POPS   C3A 2323   0.485  11.429   7.416  0.0123 -0.3499  0.0242
  135POPS   C4A 2324   0.706  11.871   7.416 -0.0797 -0.2434 -0.2954
  135POPS   C1B 2325   0.668  11.269   7.848 -0.0052  0.1789 -0.0424
  135POPS   C2B 2326   0.962  11.313   7.508 -0.1000 -0.2168  0.0235
  135POPS   D3B 2327   1.341  11.373   7.291  0.1078  0.2557  0.0104
  135POPS   C4B 2328   1.512  11.135   6.919  0.1675 -0.0237  0.0173
  135POPS   C5B 2329   1.391  10.728   6.811 -0.2965 -0.3137  0.2230
  136POPS   CNO 2330  11.180   7.900   8.857  0.0464 -0.1770  0.2176
  136POPS   CNP 2331  11.275   8.054   8.943  0.0047 -0.0738  0.0799
  136POPS   CNM 2332  10.987   7.889   8.805  0.0955 -0.5256  0.0966
  136POPS   PO4 2333  11.129   7.726   8.637  0.3009  0.0814  0.2301
  136POPS   GL1 2334  11.209   7.825   8.339 -0.1821  0.0522 -0.3181
  136POPS   G1P 2335  11.317   7.737   8.349 -0.3934 -0.1627  0.2601
  136POPS   G1M 2336  11.156   7.708   8.394 -0.4733  0.2726 -0.1124
  136POPS   GL2 2337  11.019   8.042   8.291 -0.1353  0.0198  0.2022
  136POPS   G2P 2338  11.111   8.134   8.343  0.3139 -0.1121 -0.3064
  136POPS   G2M 2339  11.150   8.039   8.240 -0.1825 -0.2809  0.0889
  136POPS   C1A 2340  10.858   8.024   7.868  0.1641 -0.0632  0.0275
  136POPS   C2A 2341  10.832   7.920   7.474  0.0085 -0.0798 -0.0068
  136POPS   C3A 2342  10.589   8.039   7.112 -0.0099 -0.1963 -0.2612
  136POPS   C4A 2343  10.236   7.945   7.093  0.1483  0.0606  0.0555
  136POPS   C1B 2344  11.375   7.963   7.954 -0.1193  0.2042 -0.1469
  136POPS   C2B 2345  11.407   8.222   7.472  0.0465 -0.1213 -0.4685
  136POPS   D3B 2346  11.236   7.941   7.108  0.2216  0.1012 -0.3067
  136POPS   C4B 2347  10.998   8.083   6.851 -0.0519 -0.5863  0.4974
  136POPS   C5B 2348  10.869   8.074   6.427  0.4559 -0.2349  0.0773
  137POPS   CNO 2349  11.171   3.832   8.877  0.2383  0.1819  0.1214
  137POPS   CNP 2350  11.318   3.720   8.955  0.0950  0.1303  0.3200
  137POPS   CNM 2351  11.044   3.955   8.785  0.2440  0.2648  0.2224
  137POPS   PO4 2352  10.822   3.661   8.808  0.1569  0.0417  0.1110
  137POPS   GL1 2353  10.877   3.660   8.425  0.1005  0.5012  0.3351
  137POPS   G1P 2354  10.803   3.678   8.308 -0.1885  0.3268  0.4840
  137POPS   G1M 2355  10.851   3.797   8.410 -0.2954  0.4349  0.3619
  137POPS   GL2 2356  10.564   3.657   8.339  0.0774 -0.0867 -0.3057
  137POPS   G2P 2357  10.662   3.746   8.292  0.1106  0.0548  0.0131
  137POPS   G2M 2358  10.490   3.725   8.242 -0.1507  0.0238 -0.0587
  137POPS   C1A 2359  10.335   3.581   7.943  0.0916 -0.1031  0.1811
  137POPS   C2A 2360  10.003   3.549   7.602  0.0602 -0.1516 -0.1127
  137POPS   C3A 2361   9.632   3.556   7.362  0.1888 -0.1373 -0.2182
  137POPS   C4A 2362   9.225   3.233   7.337  0.1145 -0.1625  0.1721
  137POPS   C1B 2363  11.103   3.766   8.052  0.3054 -0.2235  0.0032
  137POPS   C2B 2364  10.912   3.841   7.759 -0.1089 -0.2052  0.1748
  137POPS   D3B 2365  10.994   4.237   7.699 -0.1339 -0.1536 -0.0869
  137POPS   C4B 2366  11.294   4.340   7.468  0.1064 -0.0934 -0.1848
  137POPS   C5B 2367  11.682   4.025   7.306  0.0446  0.0262 -0.0241
  138POPS   CNO 2368   0.713   3.470   8.570  0.0529  0.3360  0.1590
  138POPS   CNP 2369   0.608   3.438   8.737  0.1241 -0.0154  0.1392
  138POPS   CNM 2370   0.756   3.610   8.434  0.1437 -0.1346 -0.3148
  138POPS   PO4 2371   0.666   3.390   8.273 -0.0682  0.1447  0.2460
  138POPS   GL1 2372   0.860   3.596   7.964 -0.0525  0.0122  0.3380
  138POPS   G1P 2373   0.919   3.613   7.838 -0.5636 -0.2594  0.0430
  138POPS   G1M 2374   0.759   3.683   7.923 -0.2028 -0.3597 -0.1338
  138POPS   GL2 2375   1.169   3.404   7.921  0.6377 -0.3177  0.2464
  138POPS   G2P 2376   1.094   3.288   7.946 -0.2933  0.0820 -0.4142
  138POPS   G2M 2377   1.125   3.375   8.051  0.0711 -0.3326  0.0686
  138POPS   C1A 2378   1.493   3.606   7.608  0.0630 -0.1704 -0.1617
  138POPS   C2A 2379   1.795   3.743   7.472 -0.3824 -0.0054 -0.0190
  138POPS   C3A 2380   1.865   3.871   7.055 -0.1554  0.0438 -0.5166
  138POPS   C4A 2381   2.007   4.313   6.766  0.0718 -0.0004  0.0188
  138POPS   C1B 2382   1.025   3.694   7.555  0.1479  0.0324  0.1213
  138POPS   C2B 2383   1.300   4.084   7.412  0.0314 -0.0049  0.0126
  138POPS   D3B 2384   1.469   4.202   6.995 -0.0624  0.1723 -0.1559
  138POPS   C4B 2385   1.523   3.929   6.682 -0.0933 -0.3449  0.0658
  138POPS   C5B 2386   1.782   3.490   6.662 -0.0187 -0.1998 -0.1971
  139POPS   CNO 2387   7.843  11.204   8.392 -0.2917  0.1622  0.3236
  139POPS   CNP 2388   7.668  11.111   8.418  0.0039 -0.4072  0.3648
  139POPS   CNM 2389   8.035  11.254   8.416  0.0381 -0.7515 -0.1704
  139POPS   PO4 2390   8.182  10.953   8.382  0.0978 -0.3025 -0.2495
  139POPS   GL1 2391   8.227  11.011   8.097 -0.3501  0.1536  0.0482
  139POPS   G1P 2392   8.100  11.009   8.037 -0.1311 -0.1847 -0.4427
  139POPS   G1M 2393   8.109  11.071   8.142 -0.3834 -0.0472  0.2349
  139POPS   GL2 2394   8.170  11.083   7.823 -0.0609  0.4122  0.1110
  139POPS   G2P 2395   8.247  11.165   7.741  0.1781  0.1311  0.0443
  139POPS   G2M 2396   8.066  11.061   7.732 -0.0000 -0.3056  0.1890
  139POPS   C1A 2397   8.263  11.321   7.532 -0.0091  0.1970 -0.0491
  139POPS   C2A 2398   7.851  11.235   7.298 -0.4133 -0.2379 -0.1669
  139POPS   C3A 2399   7.842  11.203   6.889 -0.0151 -0.2403  0.0194
  139POPS   C4A 2400   8.181  11.008   6.686  0.0024 -0.0673  0.0679
  139POPS   C1B 2401   8.285  10.593   7.761 -0.2201  0.0263  0.1079
  139POPS   C2B 2402   8.321  10.172   7.603 -0.0280 -0.0180  0.1183
  139POPS   D3B 2403   8.519   9.813   7.408 -0.0812  0.2969  0.2650
  139POPS   C4B 2404   8.499   9.824   6.978  0.2658 -0.1450 -0.2491
  139POPS   C5B 2405   8.524  10.097   6.612  0.0533 -0.0890 -0.0903
  140POPS   CNO 2406   2.957   6.998   8.703  0.1942 -0.0507 -0.5085
  140POPS   CNP 2407   2.961   6.808   8.765 -0.0190  0.1461  0.1490
  140POPS   CNM 2408   3.111   7.125   8.717  0.3080 -0.2188 -0.1958
  140POPS   PO4 2409   2.953   7.390   8.819 -0.0634  0.0882  0.1312
  140POPS   GL1 2410   3.006   7.463   8.467 -0.1584  0.1778  0.2608
  140POPS   G1P 2411   2.873   7.472   8.425 -0.1420  0.0174  0.1697
  140POPS   G1M 2412   2.888   7.475   8.542 -0.1842  0.2221  0.2136
  140POPS   GL2 2413   3.317   7.486   8.362  0.0339 -0.5443  0.4776
  140POPS   G2P 2414   3.429   7.567   8.341 -0.2259 -0.2848  0.0016
  140POPS   G2M 2415   3.338   7.438   8.232  0.3266  0.5921  0.0393
  140POPS   C1A 2416   3.214   7.859   8.176 -0.1740  0.3099 -0.1261
  140POPS   C2A 2417   3.160   8.045   7.828  0.2392 -0.0905 -0.1010
  140POPS   C3A 2418   2.926   8.421   7.750  0.0413  0.0829  0.1596
  140POPS   C4A 2419   2.838   8.715   8.044 -0.0203 -0.0136 -0.0752
  140POPS   C1B 2420   3.024   7.468   7.952 -0.0581  0.0546 -0.2761
  140POPS   C2B 2421   3.121   7.601   7.623 -0.0427  0.1083 -0.1843
  140POPS   D3B 2422   2.940   7.951   7.428 -0.0419  0.0170 -0.0311
  140POPS   C4B 2423   2.942   8.084   7.028 -0.0011  0.1688 -0.1702
  140POPS   C5B 2424   3.056   8.159   6.534  0.2016 -0.4073 -0.0139
  141POPS   CNO 2425   3.481   7.478   8.866 -0.3803 -0.1399  0.1819
  141POPS   CNP 2426   3.539   7.599   9.014 -0.0189 -0.3617  0.2286
  141POPS   CNM 2427   3.398   7.329   8.761 -0.0541 -0.2193  0.0296
  141POPS   PO4 2428   3.705   7.188   8.726  0.3262  0.0996  0.0049
  141POPS   GL1 2429   3.645   7.155   8.415  0.0027 -0.2655 -0.0583
  141POPS   G1P 2430   3.587   7.153   8.287 -0.0518 -0.1449 -0.0366
  141POPS   G1M 2431   3.527   7.204   8.473  0.2962 -0.1094  0.4292
  141POPS   GL2 2432   3.344   6.983   8.278  0.2489 -0.1752 -0.0390
  141POPS   G2P 2433   3.478   6.943   8.265  0.3962  0.3883 -0.4351
  141POPS   G2M 2434   3.437   7.060   8.350 -0.0456  0.2345 -0.0785
  141POPS   C1A 2435   2.954   6.884   8.017  0.0136  0.0066  0.0054
  141POPS   C2A 2436   2.829   6.682   7.594 -0.2966 -0.1373  0.1802
  141POPS   C3A 2437   2.520   6.384   7.500 -0.0648 -0.0168  0.1364
  141POPS   C4A 2438   2.181   6.114   7.729  0.1608 -0.1610 -0.1412
  141POPS   C1B 2439   3.872   7.004   8.048 -0.0068  0.0675  0.2948
  141POPS   C2B 2440   3.852   6.864   7.686  0.0447  0.2040 -0.0398
  141POPS   D3B 2441   3.839   6.704   7.292 -0.0036  0.2839 -0.3436
  141POPS   C4B 2442   3.686   6.276   7.457 -0.3303 -0.4453  0.1405
  141POPS   C5B 2443   3.426   5.906   7.399 -0.0941 -0.1727 -0.3666
  142POPS   CNO 2444   3.670   1.406   8.813 -0.1330 -0.6864 -0.2916
  142POPS   CNP 2445   3.652   1.350   9.005 -0.1191  0.2522  0.0067
  142POPS   CNM 2446   3.766   1.467   8.649 -0.1581 -0.2619 -0.1539
  142POPS   PO4 2447   3.586   1.300   8.443  0.1372  0.4452  0.0470
  142POPS   GL1 2448   3.655   1.302   8.153  0.4866  0.0689 -0.0289
  142POPS   G1P 2449   3.645   1.289   8.014 -0.1532 -0.0467  0.0085
  142POPS   G1M 2450   3.681   1.439   8.150  0.0760  0.1510 -0.4635
  142POPS   GL2 2451   3.927   1.105   8.163 -0.0963  0.0113  0.1617
  142POPS   G2P 2452   4.058   1.130   8.119 -0.0501 -0.4981 -0.0194
  142POPS   G2M 2453   4.008   0.999   8.121 -0.3343 -0.1489  0.0982
  142POPS   C1A 2454   4.071   1.222   7.734  0.1091  0.0944  0.1236
  142POPS   C2A 2455   4.336   1.180   7.435  0.1778  0.0296  0.1071
  142POPS   C3A 2456   4.644   1.044   7.065 -0.0499  0.4358  0.3487
  142POPS   C4A 2457   4.672   0.834   6.630 -0.0608 -0.0561 -0.1269
  142POPS   C1B 2458   3.562   1.409   7.736  0.0269 -0.1077  0.2911
  142POPS   C2B 2459   3.353   1.440   7.370  0.0086 -0.1130  0.0007
  142POPS   D3B 2460   3.220   1.733   6.973  0.1357  0.1020 -0.1450
  142POPS   C4B 2461   3.192   1.691   6.616  0.4344  0.0438  0.0726
  142POPS   C5B 2462   3.508   1.508   6.389  0.0006  0.0787  0.1913
  143POPS   CNO 2463   7.226   6.840   8.614  0.2922  0.0699  0.3475
  143POPS   CNP 2464   7.418   6.786   8.603  0.2850  0.0946  0.0465
  143POPS   CNM 2465   7.068   6.944   8.548  0.2501 -0.2921 -0.1560
  143POPS   PO4 2466   6.892   6.690   8.755 -0.1521  0.1056  0.1507
  143POPS   GL1 2467   6.971   6.514   8.430 -0.3291  0.1449 -0.1102
  143POPS   G1P 2468   7.032   6.475   8.311  0.3681 -0.1218  0.3017
  143POPS   G1M 2469   6.966   6.398   8.352 -0.2285  0.0353  0.0420
  143POPS   GL2 2470   6.686   6.693   8.286 -0.0585  0.1429  0.1556
  143POPS   G2P 2471   6.656   6.675   8.421 -0.0036  0.3053  0.1893
  143POPS   G2M 2472   6.596   6.593   8.247  0.4695 -0.0964 -0.5523
  143POPS   C1A 2473   6.555   6.506   7.886  0.0599  0.2788 -0.0506
  143POPS   C2A 2474   6.500   6.251   7.504 -0.0665 -0.1332  0.0598
  143POPS   C3A 2475   6.637   6.040   7.166 -0.2158  0.1211  0.0126
  143POPS   C4A 2476   7.039   5.956   7.299 -0.0802 -0.1799 -0.3648
  143POPS   C1B 2477   6.997   6.314   8.045 -0.0471  0.0246  0.2338
  143POPS   C2B 2478   6.841   5.947   7.801  0.2720  0.1182 -0.1352
  143POPS   D3B 2479   6.659   5.539   7.469 -0.3439  0.0807 -0.2140
  143POPS   C4B 2480   7.055   5.479   7.288 -0.2303 -0.0865  0.0394
  143POPS   C5B 2481   7.411   5.480   7.045  0.0789  0.1047  0.1554
  144POPS   CNO 2482   0.389   0.062   8.510  0.0206  0.2076 -0.1330
  144POPS   CNP 2483   0.589   0.064   8.521  0.0003  0.2046  0.3765
  144POPS   CNM 2484   0.204   0.075   8.584  0.0300  0.9785 -0.1973
  144POPS   PO4 2485   0.080   0.340   8.483 -0.1026  0.1260 -0.1116
  144POPS   GL1 2486   0.050   0.202   8.173  0.5138 -0.6884 -0.2297
  144POPS   G1P 2487  -0.039   0.103   8.216 -0.2649  0.0745  0.0862
  144POPS   G1M 2488   0.021   0.208   8.310 -0.5824  0.0566 -0.4261
  144POPS   GL2 2489  11.904   0.365   8.040  0.1973 -0.0949 -0.1119
  144POPS   G2P 2490  11.945   0.308   8.162 -0.0781 -0.3468 -0.1327
  144POPS   G2M 2491  11.829   0.288   8.130 -0.0630  0.0283 -0.2181
  144POPS   C1A 2492  11.597   0.210   7.724  0.1003  0.2111  0.2475
  144POPS   C2A 2493  11.593  11.862   7.508 -0.3321  0.0733  0.0110
  144POPS   C3A 2494  11.662  11.724   7.103 -0.0232 -0.0096  0.3931
  144POPS   C4A 2495  11.785  11.329   6.917 -0.2416 -0.3363  0.1146
  144POPS   C1B 2496   0.184   0.513   7.765 -0.3113  0.3187  0.1262
  144POPS   C2B 2497   0.150   0.773   7.428  0.0694 -0.0471  0.4293
  144POPS   D3B 2498   0.116   0.945   6.953  0.0028 -0.0491  0.1237
  144POPS   C4B 2499   0.471   1.176   6.820  0.0835  0.0139 -0.2925
  144POPS   C5B 2500   0.654   1.097   6.400  0.2458  0.1484  0.1195
  145POPS   CNO 2501   6.925   7.481   8.487 -0.0623  0.0448 -0.1419
  145POPS   CNP 2502   6.818   7.644   8.445 -0.3181 -0.0941 -0.0439
  145POPS   CNM 2503   6.945   7.283   8.463 -0.3450 -0.0359  0.2313
  145POPS   PO4 2504   7.268   7.325   8.354  0.0457 -0.3200 -0.2505
  145POPS   GL1 2505   7.393   7.156   8.171  0.0101 -0.2450  0.1193
  145POPS   G1P 2506   7.477   7.161   8.059 -0.3613 -0.3870 -0.1797
  145POPS   G1M 2507   7.530   7.182   8.171  0.0601 -0.4818 -0.1321
  145POPS   GL2 2508   7.676   7.041   8.274 -0.0086  0.1916  0.2494
  145POPS   G2P 2509   7.612   7.165   8.262 -0.3750 -0.0287 -0.2234
  145POPS   G2M 2510   7.788   7.113   8.231 -0.0898 -0.1677 -0.6656
  145POPS   C1A 2511   8.005   7.088   7.994 -0.2478  0.0568  0.1365
  145POPS   C2A 2512   8.212   6.909   7.677  0.1208  0.0932  0.0876
  145POPS   C3A 2513   8.305   6.553   7.534 -0.0963 -0.1852  0.0469
  145POPS   C4A 2514   8.108   6.247   7.207 -0.1387  0.4323 -0.1194
  145POPS   C1B 2515   7.504   6.967   7.722  0.0362 -0.0289  0.4174
  145POPS   C2B 2516   7.291   6.795   7.315  0.0149  0.1752 -0.0855
  145POPS   D3B 2517   7.303   6.527   6.862 -0.1355  0.0045  0.2275
  145POPS   C4B 2518   7.142   6.184   6.861  0.0727 -0.0168  0.0920
  145POPS   C5B 2519   6.789   6.119   6.653 -0.2934  0.2161  0.1087
  146POPS   CNO 2520   8.350  12.068   8.273  0.4447 -0.3322 -0.2980
  146POPS   CNP 2521   8.205  11.945   8.209 -0.1940  0.2682 -0.0706
  146POPS   CNM 2522   8.490  12.187   8.352  0.0056  0.1343 -0.1957
  146POPS   PO4 2523   8.275   0.219   8.289  0.3876  0.1637 -0.1653
  146POPS   GL1 2524   8.169   0.413   8.039 -0.0842 -0.2963 -0.6673
  146POPS   G1P 2525   8.263   0.496   8.101 -0.6143 -0.1900  0.0659
  146POPS   G1M 2526   8.249   0.332   8.121 -0.1601 -0.0321 -0.3205
  146POPS   GL2 2527   8.342   0.737   8.009  0.2053 -0.0583  0.1290
  146POPS   G2P 2528   8.318   0.756   7.872  0.1426 -0.2305  0.1144
  146POPS   G2M 2529   8.428   0.839   7.967 -0.1836  0.2262 -0.0042
  146POPS   C1A 2530   8.736   0.679   7.760  0.0654  0.0826  0.0442
  146POPS   C2A 2531   8.998   0.774   7.479 -0.1762 -0.2816 -0.1703
  146POPS   C3A 2532   9.484   0.581   7.484 -0.2661  0.0322 -0.1678
  146POPS   C4A 2533   9.924   0.694   7.364  0.0948 -0.0080 -0.1291
  146POPS   C1B 2534   8.135   0.529   7.571 -0.0939 -0.1043  0.1112
  146POPS   C2B 2535   7.818   0.446   7.290  0.0160 -0.0967 -0.1146
  146POPS   D3B 2536   7.449   0.486   6.966  0.0527 -0.2418  0.0618
  146POPS   C4B 2537   7.572   0.697   6.611  0.2775  0.0115 -0.0581
  146POPS   C5B 2538   7.349   0.815   6.288  0.1576  0.1969  0.1121
  147POPS   CNO 2539   0.921   0.286   8.601  0.0644 -0.2307 -0.0305
  147POPS   CNP 2540   0.851   0.119   8.516 -0.3316 -0.2363  0.2933
  147POPS   CNM 2541   1.089   0.388   8.561  0.0709 -0.1965  0.0814
  147POPS   PO4 2542   0.913   0.624   8.525  0.0337  0.1715 -0.2132
  147POPS   GL1 2543   1.065   0.655   8.184 -0.2566 -0.4431  0.0425
  147POPS   G1P 2544   0.940   0.712   8.212 -0.0748  0.0259 -0.0476
  147POPS   G1M 2545   1.126   0.670   8.309 -0.0542 -0.5335 -0.0442
  147POPS   GL2 2546   1.247   0.421   8.023  0.3592 -0.3067  0.2064
  147POPS   G2P 2547   1.148   0.372   8.109 -0.0899 -0.0427 -0.1356
  147POPS   G2M 2548   1.183   0.480   8.132 -0.5075 -0.4122 -0.2063
  147POPS   C1A 2549   1.544   0.410   7.713 -0.1147  0.0928 -0.0238
  147POPS   C2A 2550   1.652   0.023   7.530  0.0173 -0.0538 -0.2072
  147POPS   C3A 2551   1.695  11.807   7.397 -0.0983 -0.2980  0.2021
  147POPS   C4A 2552   1.813  11.343   7.529  0.0340  0.0360 -0.0913
  147POPS   C1B 2553   1.210   0.765   7.730  0.2833 -0.0008  0.2411
  147POPS   C2B 2554   1.128   0.655   7.329 -0.0200  0.3728  0.3417
  147POPS   D3B 2555   1.055   0.442   6.928  0.0632 -0.0971  0.1842
  147POPS   C4B 2556   1.225   0.752   6.655  0.3207  0.0161 -0.0787
  147POPS   C5B 2557   1.154   1.059   6.300  0.1209 -0.0352 -0.0070
  148POPS   CNO 2558   5.141  11.291   8.614 -0.1003  0.2371 -0.3610
  148POPS   CNP 2559   4.973  11.183   8.606  0.1548 -0.1985 -0.0484
  148POPS   CNM 2560   5.247  11.460   8.634 -0.1311  0.2002  0.2084
  148POPS   PO4 2561   5.542  11.253   8.652 -0.0336 -0.3133  0.1076
  148POPS   GL1 2562   5.506  11.299   8.258 -0.0109 -0.1759  0.4509
  148POPS   G1P 2563   5.596  11.404   8.236 -0.2572 -0.0543 -0.0538
  148POPS   G1M 2564   5.614  11.276   8.345  0.4034  0.1588  0.0489
  148POPS   GL2 2565   5.225  11.145   8.120 -0.2387 -0.1159 -0.1682
  148POPS   G2P 2566   5.120  11.135   8.212 -0.1032  0.2942  0.0455
  148POPS   G2M 2567   5.104  11.076   8.115 -0.4590  0.2028  0.3694
  148POPS   C1A 2568   5.664  10.879   7.964  0.1258  0.2250  0.0213
  148POPS   C2A 2569   5.737  10.560   7.588 -0.2363 -0.1175  0.0988
  148POPS   C3A 2570   5.713  10.176   7.363 -0.3210 -0.0470  0.2989
  148POPS   C4A 2571   5.653   9.825   7.171  0.1435  0.0240  0.1778
  148POPS   C1B 2572   5.561  11.481   7.822  0.0822 -0.1024  0.2174
  148POPS   C2B 2573   5.865  11.433   7.563 -0.3281 -0.3305  0.0468
  148POPS   D3B 2574   6.295  11.346   7.447 -0.1869  0.2086  0.0893
  148POPS   C4B 2575   6.509  11.342   7.047 -0.0019 -0.0630  0.1443
  148POPS   C5B 2576   6.526  11.133   6.730 -0.1325  0.1218  0.1536
  149POPS   CNO 2577   1.610   1.129   8.507  0.2429 -0.3156  0.1562
  149POPS   CNP 2578   1.723   1.291   8.539  0.0311 -0.1956  0.3155
  149POPS   CNM 2579   1.450   1.013   8.473  0.2246 -0.2035 -0.1578
  149POPS   PO4 2580   1.526   0.755   8.407  0.0371 -0.0137 -0.0756
  149POPS   GL1 2581   1.599   0.783   8.060 -0.1747 -0.2357 -0.3210
  149POPS   G1P 2582   1.640   0.699   7.956 -0.2133 -0.1268 -0.4246
  149POPS   G1M 2583   1.737   0.778   8.038  0.0810 -0.3516  0.9270
  149POPS   GL2 2584   1.865   1.009   8.063 -0.1216  0.0985  0.2757
  149POPS   G2P 2585   1.735   0.958   8.076 -0.2432  0.3571  0.1094
  149POPS   G2M 2586   1.810   0.909   7.983 -0.0676  0.0584  0.2880
  149POPS   C1A 2587   1.966   0.896   7.674 -0.2753  0.2095 -0.1054
  149POPS   C2A 2588   1.679   0.791   7.367 -0.0340 -0.0760  0.1540
  149POPS   C3A 2589   1.545   0.515   7.000 -0.2982  0.0436 -0.1145
  149POPS   C4A 2590   1.347   0.169   7.153  0.0081 -0.1308  0.0000
  149POPS   C1B 2591   1.521   1.170   7.608  0.2268  0.1312  0.1661
  149POPS   C2B 2592   1.375   1.473   7.314 -0.1219 -0.0762 -0.2529
  149POPS   D3B 2593   1.385   1.529   6.938 -0.0753  0.1490 -0.4978
  149POPS   C4B 2594   1.480   1.254   6.656 -0.2158 -0.1104  0.0083
  149POPS   C5B 2595   1.697   0.915   6.467 -0.3625  0.0813 -0.0138
  150POPS   CNO 2596   2.013   2.203   8.456  0.2286 -0.1685 -0.3315
  150POPS   CNP 2597   2.065   2.393   8.493 -0.3369 -0.1051  0.2350
  150POPS   CNM 2598   2.058   2.017   8.514 -0.0945 -0.0811  0.2363
  150POPS   PO4 2599   1.687   2.041   8.532  0.0734 -0.1491 -0.0769
  150POPS   GL1 2600   1.646   2.043   8.153  0.1885 -0.0529 -0.0508
  150POPS   G1P 2601   1.698   1.938   8.077  0.1621 -0.3094  0.2752
  150POPS   G1M 2602   1.724   2.148   8.103  0.0254  0.0950 -0.0021
  150POPS   GL2 2603   1.639   2.271   8.009 -0.1403  0.0775 -0.4417
  150POPS   G2P 2604   1.770   2.242   7.968 -0.1245 -0.5004 -0.0423
  150POPS   G2M 2605   1.635   2.137   7.970  0.0668 -0.1379  0.2129
  150POPS   C1A 2606   1.395   2.395   7.580  0.1254  0.1073  0.0958
  150POPS   C2A 2607   1.651   2.321   7.298  0.0645  0.0983  0.2674
  150POPS   C3A 2608   2.052   2.523   7.026  0.0578 -0.0195  0.0650
  150POPS   C4A 2609   2.374   2.420   6.675  0.1453  0.2136  0.3600
  150POPS   C1B 2610   1.462   1.886   7.682  0.2220  0.0378 -0.1001
  150POPS   C2B 2611   1.747   1.851   7.384  0.0331 -0.1388  0.0258
  150POPS   D3B 2612   1.866   1.669   7.000 -0.0070  0.1539 -0.2451
  150POPS   C4B 2613   1.777   1.625   6.565 -0.0115  0.0601  0.0517
  150POPS   C5B 2614   1.837   1.369   6.214 -0.0681 -0.0412 -0.1303
  151POPS   CNO 2615  11.617   9.971   8.720  0.1227 -0.1695  0.3568
  151POPS   CNP 2616  11.683  10.160   8.707  0.0764 -0.1671  0.1405
  151POPS   CNM 2617  11.519   9.831   8.824  0.5558 -0.5459  0.2752
  151POPS   PO4 2618  11.752   9.625   8.696 -0.0806 -0.0657  0.0573
  151POPS   GL1 2619  11.545   9.536   8.417 -0.3331 -0.0736  0.1564
  151POPS   G1P 2620  11.513   9.669   8.388 -0.3764 -0.0614  0.2600
  151POPS   G1M 2621  11.466   9.546   8.532 -0.1400  0.0643  0.2810
  151POPS   GL2 2622  11.245   9.373   8.339 -0.0537 -0.1827 -0.5056
  151POPS   G2P 2623  11.118   9.363   8.398  0.1972 -0.3191  0.0412
  151POPS   G2M 2624  11.234   9.261   8.422 -0.0186  0.0968 -0.1081
  151POPS   C1A 2625  11.724   9.187   8.048  0.2275  0.4073  0.0146
  151POPS   C2A 2626  11.894   9.004   7.682  0.1363  0.0179  0.2247
  151POPS   C3A 2627  12.022   8.831   7.305 -0.1860 -0.0521  0.0193
  151POPS   C4A 2628  11.998   8.670   6.864  0.2445 -0.2718 -0.3537
  151POPS   C1B 2629  11.502   9.786   8.005 -0.0586  0.1867  0.0913
  151POPS   C2B 2630  11.775  10.046   7.810  0.0101 -0.1331 -0.0461
  151POPS   D3B 2631  11.936  10.619   7.842 -0.0176  0.4249  0.0574
  151POPS   C4B 2632  11.931  10.959   7.624 -0.1421  0.2549 -0.0893
  151POPS   C5B 2633  12.022  11.314   7.389  0.0769  0.1544  0.2609
  152POPS   CNO 2634   7.275  10.974   8.725 -0.1439  0.4709 -0.5248
  152POPS   CNP 2635   7.238  11.010   8.918 -0.1367 -0.1551 -0.3975
  152POPS   CNM 2636   7.180  10.896   8.568  0.2658 -0.0112 -0.5451
  152POPS   PO4 2637   7.467  10.952   8.464 -0.1465  0.3600  0.0336
  152POPS   GL1 2638   7.458  10.842   8.156  0.1364  0.1923 -0.2335
  152POPS   G1P 2639   7.372  10.746   8.103 -0.3135  0.3312  0.2025
  152POPS   G1M 2640   7.384  10.798   8.266 -0.0187  0.4021 -0.2512
  152POPS   GL2 2641   7.245  10.918   7.919  0.1541 -0.1227  0.0862
  152POPS   G2P 2642   7.332  11.027   7.916  0.2109 -0.1680  0.0581
  152POPS   G2M 2643   7.257  10.970   8.048  0.3414 -0.1814  0.0936
  152POPS   C1A 2644   7.513  11.157   7.796 -0.0295  0.0529 -0.1965
  152POPS   C2A 2645   7.339  11.456   7.546  0.0362  0.0684 -0.1022
  152POPS   C3A 2646   7.445  11.553   7.194 -0.0716 -0.1898 -0.0248
  152POPS   C4A 2647   7.659  11.618   6.804 -0.0129 -0.1526 -0.0670
  152POPS   C1B 2648   7.811  10.770   7.760 -0.3459 -0.0209  0.0226
  152POPS   C2B 2649   7.872  10.327   7.569  0.1992  0.0310  0.2046
  152POPS   D3B 2650   7.923  10.207   7.139 -0.2577 -0.2209 -0.1958
  152POPS   C4B 2651   8.100  10.416   6.794 -0.1756 -0.1960 -0.0952
  152POPS   C5B 2652   8.408  10.565   6.396  0.1602  0.0182  0.1169
  153POPS   CNO 2653  12.058   6.998   8.686  0.1179  0.1571  0.0497
  153POPS   CNP 2654  11.990   7.185   8.661 -0.3445  0.0624  0.5092
  153POPS   CNM 2655  12.172   6.849   8.619 -0.2552  0.0557 -0.3865
  153POPS   PO4 2656   0.236   7.049   8.682 -0.1153  0.0772 -0.0335
  153POPS   GL1 2657   0.247   7.109   8.341 -0.2578  0.0633 -0.6025
  153POPS   G1P 2658   0.373   7.119   8.281  0.0241  0.3763 -0.0027
  153POPS   G1M 2659   0.194   7.238   8.334  0.2054  0.3196  0.0663
  153POPS   GL2 2660  12.082   6.881   8.153  0.1369  0.2833 -0.1009
  153POPS   G2P 2661  12.159   6.809   8.061 -0.2712  0.0180 -0.2475
  153POPS   G2M 2662  12.015   6.870   8.031  0.3605  0.0772 -0.2090
  153POPS   C1A 2663  11.863   6.995   7.759  0.2750 -0.1468  0.0801
  153POPS   C2A 2664  11.730   7.267   7.435  0.0986 -0.2900 -0.3416
  153POPS   C3A 2665  11.559   7.498   7.036 -0.1199  0.0829 -0.1734
  153POPS   C4A 2666  11.774   7.861   7.070  0.3257  0.1990 -0.0247
  153POPS   C1B 2667   0.002   7.396   8.023 -0.0083 -0.4344 -0.1847
  153POPS   C2B 2668   0.009   7.426   7.664 -0.0174 -0.0630 -0.1305
  153POPS   D3B 2669   0.082   7.381   7.195  0.1053 -0.0187  0.2469
  153POPS   C4B 2670  12.017   7.096   6.954 -0.2336 -0.0634  0.1352
  153POPS   C5B 2671  12.062   6.839   6.680  0.0462 -0.2577  0.1987
  154POPS   CNO 2672   5.562   5.149   8.427  0.0190  0.2397 -0.3515
  154POPS   CNP 2673   5.590   4.962   8.494 -0.0509  0.2450 -0.3067
  154POPS   CNM 2674   5.692   5.294   8.382  0.2793  0.3021  0.5108
  154POPS   PO4 2675   5.404   5.422   8.422 -0.2041  0.3047 -0.1773
  154POPS   GL1 2676   5.375   5.574   8.127  0.1841 -0.1544 -0.0822
  154POPS   G1P 2677   5.384   5.440   8.165 -0.1449 -0.0412  0.4565
  154POPS   G1M 2678   5.281   5.481   8.173 -0.0292  0.0456 -0.1023
  154POPS   GL2 2679   5.069   5.739   8.169 -0.0962  0.0651 -0.2502
  154POPS   G2P 2680   4.934   5.755   8.135 -0.2152 -0.3601 -0.0043
  154POPS   G2M 2681   4.997   5.853   8.207 -0.4457 -0.3529  0.4461
  154POPS   C1A 2682   4.914   6.251   8.058  0.0454 -0.0647  0.2032
  154POPS   C2A 2683   4.678   6.333   7.509  0.2824  0.2157  0.1842
  154POPS   C3A 2684   4.798   6.456   7.126 -0.2710 -0.0477 -0.1778
  154POPS   C4A 2685   4.931   6.633   6.829 -0.1118 -0.0144 -0.0471
  154POPS   C1B 2686   5.497   5.556   7.710  0.1066 -0.1700  0.2658
  154POPS   C2B 2687   5.832   5.527   7.507 -0.2631 -0.0691 -0.1452
  154POPS   D3B 2688   6.184   5.705   7.215 -0.0286 -0.0291 -0.3167
  154POPS   C4B 2689   6.574   5.508   6.950 -0.2383  0.1126  0.1105
  154POPS   C5B 2690   6.569   5.035   6.745 -0.1439 -0.0359 -0.0104
  155POPS   CNO 2691   1.438   6.607   8.941 -0.0473  0.2313  0.0477
  155POPS   CNP 2692   1.499   6.476   9.080  0.0841 -0.0735 -0.2913
  155POPS   CNM 2693   1.462   6.779   8.842  0.1036  0.5047  0.5381
  155POPS   PO4 2694   1.164   6.555   8.714  0.1459  0.0455  0.1833
  155POPS   GL1 2695   1.174   6.720   8.464  0.2858  0.2588  0.3141
  155POPS   G1P 2696   1.149   6.809   8.359 -0.0053  0.0605  0.2097
  155POPS   G1M 2697   1.035   6.715   8.456  0.2697  0.7922 -0.0015
  155POPS   GL2 2698   1.220   6.439   8.188 -0.0414  0.4193 -0.1745
  155POPS   G2P 2699   1.197   6.462   8.324 -0.1002  0.2515 -0.1538
  155POPS   G2M 2700   1.225   6.578   8.196 -0.2428  0.4175  0.0560
  155POPS   C1A 2701   1.621   6.380   7.956 -0.0970  0.4746  0.1829
  155POPS   C2A 2702   2.004   6.564   7.778  0.2271  0.0388 -0.0700
  155POPS   C3A 2703   2.156   6.734   7.482  0.0080  0.2137 -0.2591
  155POPS   C4A 2704   2.039   6.636   7.037  0.1914  0.0537  0.3781
  155POPS   C1B 2705   0.861   6.801   8.155  0.0208  0.2542  0.0237
  155POPS   C2B 2706   0.408   6.765   8.049  0.1337 -0.1647  0.0072
  155POPS   D3B 2707   0.114   6.552   7.776  0.1528 -0.1516 -0.0195
  155POPS   C4B 2708   0.103   6.081   7.731 -0.3234 -0.0836 -0.0564
  155POPS   C5B 2709   0.047   5.593   7.695 -0.2771 -0.3545 -0.2824
  156POPS   CNO 2710  11.775   2.109   8.789  0.0714  0.3605  0.6052
  156POPS   CNP 2711  11.898   1.992   8.894  0.1546 -0.2987 -0.1742
  156POPS   CNM 2712  11.783   2.271   8.673 -0.1783 -0.0651 -0.0345
  156POPS   PO4 2713  11.498   2.163   8.578  0.2286  0.0064  0.0117
  156POPS   GL1 2714  11.427   2.326   8.383 -0.0100  0.1865 -0.2806
  156POPS   G1P 2715  11.403   2.384   8.509  0.0163  0.3434 -0.3469
  156POPS   G1M 2716  11.490   2.428   8.456  0.0749 -0.1488  0.1362
  156POPS   GL2 2717  11.506   2.653   8.380  0.3255  0.3344 -0.0107
  156POPS   G2P 2718  11.490   2.522   8.333 -0.4474  0.5326 -0.3852
  156POPS   G2M 2719  11.630   2.603   8.419  0.3251  0.4217  0.1064
  156POPS   C1A 2720  11.685   2.928   8.086 -0.2139  0.0140  0.0442
  156POPS   C2A 2721  11.752   2.897   7.662  0.2551 -0.1381 -0.2103
  156POPS   C3A 2722  11.628   2.756   7.217  0.3189 -0.0315  0.1255
  156POPS   C4A 2723  11.318   2.909   6.917 -0.1982 -0.1774  0.2541
  156POPS   C1B 2724  11.272   2.535   7.947 -0.0515  0.1412 -0.0864
  156POPS   C2B 2725  11.269   2.850   7.725 -0.1941 -0.1969  0.2711
  156POPS   D3B 2726  11.351   3.095   7.405  0.1520 -0.1751 -0.1700
  156POPS   C4B 2727  11.652   3.271   7.294  0.0707  0.1210 -0.0303
  156POPS   C5B 2728  11.916   3.592   7.230  0.0173 -0.5419 -0.1621
  157POPS   CNO 2729   1.607   7.317   8.798  0.0289  0.0819  0.5069
  157POPS   CNP 2730   1.634   7.515   8.812 -0.6832  0.2628 -0.2524
  157POPS   CNM 2731   1.528   7.135   8.770  0.2353  0.0327  0.2217
  157POPS   PO4 2732   1.788   7.030   8.686  0.2225  0.0082  0.0827
  157POPS   GL1 2733   1.575   6.936   8.352 -0.3718 -0.0213 -0.3250
  157POPS   G1P 2734   1.440   6.971   8.345 -0.2155  0.7351 -0.0738
  157POPS   G1M 2735   1.557   6.963   8.488 -0.3904 -0.5161 -0.2220
  157POPS   GL2 2736   1.582   7.289   8.313  0.1693 -0.0208  0.0739
  157POPS   G2P 2737   1.553   7.314   8.447 -0.6600 -0.0182 -0.0841
  157POPS   G2M 2738   1.476   7.380   8.323 -0.0119 -0.2180 -0.0324
  157POPS   C1A 2739   1.205   7.238   8.061  0.1658  0.1095  0.0140
  157POPS   C2A 2740   0.650   7.214   7.968  0.0375 -0.2247 -0.0006
  157POPS   C3A 2741   0.352   6.992   7.583  0.1703 -0.2781 -0.1282
  157POPS   C4A 2742   0.104   6.835   7.332 -0.0090 -0.0517 -0.3269
  157POPS   C1B 2743   1.454   6.841   7.902 -0.2141  0.3368  0.0781
  157POPS   C2B 2744   1.084   6.984   7.659  0.3053  0.0995 -0.2121
  157POPS   D3B 2745   0.998   7.370   7.615 -0.0018  0.1039 -0.0049
  157POPS   C4B 2746   0.645   7.504   7.266 -0.2116  0.0346 -0.0440
  157POPS   C5B 2747   0.553   7.910   7.202 -0.1011 -0.1708  0.1899
  158POPS   CNO 2748   9.035   0.082   8.309  0.0106 -0.1752 -0.2368
  158POPS   CNP 2749   9.229   0.084   8.260 -0.0514 -0.5484 -0.5175
  158POPS   CNM 2750   8.839   0.098   8.345  0.0871  0.1408  0.0831
  158POPS   PO4 2751   8.826  11.829   8.335  0.0035 -0.2508 -0.2138
  158POPS   GL1 2752   8.740  11.808   8.060  0.0679 -0.0001  0.2119
  158POPS   G1P 2753   8.763  11.944   8.035 -0.0959  0.0235  0.1841
  158POPS   G1M 2754   8.800  11.907   8.139 -0.1731  0.1593  0.1997
  158POPS   GL2 2755   9.076  11.937   7.910 -0.1506 -0.0396 -0.2883
  158POPS   G2P 2756   9.109  12.038   8.001 -0.1288 -0.0740 -0.2583
  158POPS   G2M 2757   9.203  11.958   7.965 -0.0635 -0.2479 -0.4043
  158POPS   C1A 2758   9.050  11.658   7.605  0.1407  0.1860 -0.3477
  158POPS   C2A 2759   8.840  11.356   7.362 -0.0359  0.0056 -0.0625
  158POPS   C3A 2760   8.547  11.327   7.100 -0.1849  0.0590 -0.0709
  158POPS   C4A 2761   8.591  11.622   6.761 -0.4163 -0.2316 -0.3674
  158POPS   C1B 2762   8.694  11.347   7.806  0.0726  0.0381  0.0650
  158POPS   C2B 2763   8.685  10.901   7.774  0.1006 -0.0501  0.1113
  158POPS   D3B 2764   8.713  10.784   7.416 -0.0127 -0.1974  0.1212
  158POPS   C4B 2765   8.937  10.537   7.192 -0.1592 -0.0847 -0.0160
  158POPS   C5B 2766   8.863  10.127   7.097 -0.2704 -0.1828  0.0683
  159POPS   CNO 2767   7.847  11.782   8.599 -0.4177  0.1831 -0.3122
  159POPS   CNP 2768   7.773  11.870   8.762 -0.2485  0.8474 -0.5792
  159POPS   CNM 2769   7.732  11.718   8.448 -0.3963 -0.2875 -0.1391
  159POPS   PO4 2770   8.026  11.696   8.253 -0.0147 -0.2106  0.0988
  159POPS   GL1 2771   8.077  11.828   7.953  0.0825 -0.2245  0.3711
  159POPS   G1P 2772   8.112  11.723   8.038  0.2227 -0.1249  0.4386
  159POPS   G1M 2773   8.015  11.828   8.079  0.1245  0.0324  0.3943
  159POPS   GL2 2774   7.813  11.635   7.796 -0.3080  0.0995  0.0063
  159POPS   G2P 2775   7.679  11.676   7.787 -0.2642  0.1988 -0.2632
  159POPS   G2M 2776   7.791  11.652   7.933  0.4598  0.0571  0.1544
  159POPS   C1A 2777   8.020  11.733   7.405  0.0184  0.0780 -0.2703
  159POPS   C2A 2778   8.083  11.617   6.999 -0.1789 -0.1888 -0.1845
  159POPS   C3A 2779   8.124  11.503   6.564  0.0230 -0.1622 -0.2934
  159POPS   C4A 2780   7.752  11.299   6.371 -0.0296  0.1337 -0.1156
  159POPS   C1B 2781   8.185   0.065   7.710  0.1984 -0.0787  0.0299
  159POPS   C2B 2782   8.162   0.131   7.263  0.2691  0.0281 -0.1769
  159POPS   D3B 2783   8.242   0.585   7.076 -0.0971  0.0601 -0.3888
  159POPS   C4B 2784   8.154   0.636   6.691  0.2535 -0.0924  0.1242
  159POPS   C5B 2785   7.980   0.691   6.316 -0.0922 -0.3193  0.0494
  160POPS   CNO 2786   1.280   2.853   8.657 -0.0316 -0.3247  0.0139
  160POPS   CNP 2787   1.430   2.849   8.790 -0.2155 -0.1172  0.2340
  160POPS   CNM 2788   1.113   2.962   8.645  0.0675 -0.2321 -0.7280
  160POPS   PO4 2789   1.224   3.102   8.397 -0.1702  0.1534 -0.2083
  160POPS   GL1 2790   1.323   2.978   8.099  0.4862  0.0425 -0.0255
  160POPS   G1P 2791   1.191   2.977   8.055  0.3682 -0.5235  0.2929
  160POPS   G1M 2792   1.282   3.091   8.027  0.1217 -0.0552  0.0185
  160POPS   GL2 2793   1.397   2.676   8.061 -0.0680 -0.0854 -0.0347
  160POPS   G2P 2794   1.480   2.713   7.954 -0.0284 -0.2368 -0.0579
  160POPS   G2M 2795   1.505   2.588   8.081  0.1962  0.3895  0.9478
  160POPS   C1A 2796   0.986   2.650   7.906 -0.0765  0.1077  0.1396
  160POPS   C2A 2797   0.924   2.645   7.492  0.0732 -0.2096  0.1683
  160POPS   C3A 2798   0.997   2.829   7.060 -0.1315 -0.1395 -0.1433
  160POPS   C4A 2799   0.958   3.153   6.799  0.1315 -0.3253  0.2772
  160POPS   C1B 2800   1.317   2.983   7.582  0.1159 -0.2718 -0.3281
  160POPS   C2B 2801   1.061   3.221   7.323  0.1270 -0.0558  0.0585
  160POPS   D3B 2802   0.752   3.523   7.148  0.2407 -0.0568  0.0665
  160POPS   C4B 2803   0.313   3.432   7.147 -0.0333  0.0247 -0.0183
  160POPS   C5B 2804  12.089   3.077   7.120  0.3262 -0.1411 -0.2726
  161POPS   CNO 2805   6.540   8.723   8.318  0.0577 -0.3442 -0.7258
  161POPS   CNP 2806   6.376   8.834   8.345  0.4806  0.1483 -0.0529
  161POPS   CNM 2807   6.721   8.642   8.343  0.2784  0.2889 -0.1587
  161POPS   PO4 2808   6.557   8.405   8.250  0.1176 -0.1004 -0.1506
  161POPS   GL1 2809   6.562   8.374   7.949 -0.1997 -0.0485  0.1558
  161POPS   G1P 2810   6.557   8.358   7.809  0.1447  0.0222  0.1305
  161POPS   G1M 2811   6.702   8.370   7.949 -0.1956 -0.7499 -0.2465
  161POPS   GL2 2812   6.414   7.986   7.854 -0.1891  0.1305 -0.1521
  161POPS   G2P 2813   6.466   8.114   7.833 -0.2928  0.3468  0.7367
  161POPS   G2M 2814   6.506   8.055   7.933 -0.3765  0.3652 -0.1348
  161POPS   C1A 2815   6.096   7.820   7.558 -0.1438  0.0803  0.1543
  161POPS   C2A 2816   5.687   7.648   7.529 -0.2912 -0.0213  0.0018
  161POPS   C3A 2817   5.296   7.468   7.512  0.1487  0.0753 -0.1559
  161POPS   C4A 2818   4.947   7.374   7.156 -0.2551  0.1300 -0.2117
  161POPS   C1B 2819   6.457   8.355   7.495 -0.4082  0.3196 -0.2679
  161POPS   C2B 2820   6.058   8.366   7.281  0.0766 -0.1069 -0.1088
  161POPS   D3B 2821   5.703   8.580   7.356  0.0501 -0.1102 -0.2033
  161POPS   C4B 2822   5.741   8.968   7.458  0.0235 -0.1051 -0.0008
  161POPS   C5B 2823   5.384   9.368   7.335 -0.1437 -0.0050  0.1337
  162POPS   CNO 2824   1.188  11.699   8.402 -0.0004  0.0128 -0.1446
  162POPS   CNP 2825   1.353  11.805   8.441 -0.1156  0.0697  0.1991
  162POPS   CNM 2826   1.007  11.627   8.446 -0.0932  0.1491 -0.2964
  162POPS   PO4 2827   1.115  11.371   8.376  0.3796  0.1930 -0.0344
  162POPS   GL1 2828   0.989  11.068   8.257  0.1145  0.1467 -0.0143
  162POPS   G1P 2829   0.959  11.097   8.391  0.0419  0.2206 -0.0461
  162POPS   G1M 2830   0.858  11.021   8.243  0.0337  0.3479  0.0420
  162POPS   GL2 2831   1.273  10.877   8.171  0.0613  0.4326  0.0261
  162POPS   G2P 2832   1.276  10.969   8.065 -0.3351  0.1255 -0.2700
  162POPS   G2M 2833   1.137  10.906   8.191  0.1384  0.6673  0.2196
  162POPS   C1A 2834   1.692  11.029   8.063  0.1127 -0.0093  0.0529
  162POPS   C2A 2835   1.772  11.448   8.148 -0.1776  0.0510  0.0574
  162POPS   C3A 2836   1.757  11.745   7.873  0.1615 -0.0719 -0.1073
  162POPS   C4A 2837   1.429  11.911   8.010 -0.1712  0.0168 -0.2105
  162POPS   C1B 2838   0.853  10.811   7.856 -0.0721  0.2550  0.2627
  162POPS   C2B 2839   0.788  10.885   7.382  0.0602  0.1735 -0.3218
  162POPS   D3B 2840   0.578  10.650   7.090 -0.0992  0.3337  0.4068
  162POPS   C4B 2841   0.383  10.754   6.664 -0.1972 -0.1704 -0.1543
  162POPS   C5B 2842   0.610  10.916   6.359 -0.0459 -0.0338  0.2151
  163POPS   CNO 2843   2.494   7.327   8.776  0.3015 -0.5453  0.1004
  163POPS   CNP 2844   2.665   7.424   8.813  0.2605 -0.3710 -0.1563
  163POPS   CNM 2845   2.325   7.289   8.677  0.0830  0.6785 -0.0718
  163POPS   PO4 2846   2.439   7.012   8.648  0.1301 -0.0147  0.0776
  163POPS   GL1 2847   2.530   6.879   8.355 -0.0508  0.4042 -0.0515
  163POPS   G1P 2848   2.524   6.818   8.229  0.2819 -0.1619  0.1856
  163POPS   G1M 2849   2.530   7.016   8.327 -0.0443  0.4060 -0.0423
  163POPS   GL2 2850   2.654   6.536   8.332 -0.1057  0.3629 -0.0330
  163POPS   G2P 2851   2.650   6.611   8.213 -0.0475  0.4880  0.0423
  163POPS   G2M 2852   2.654   6.438   8.232  0.5014  0.1859  0.1207
  163POPS   C1A 2853   2.674   6.401   8.021  0.1191 -0.0139  0.1367
  163POPS   C2A 2854   2.612   5.992   7.804 -0.0787  0.0755 -0.0254
  163POPS   C3A 2855   2.384   5.882   7.332 -0.0751  0.1393 -0.0029
  163POPS   C4A 2856   2.234   6.103   6.921 -0.2481  0.0839  0.1258
  163POPS   C1B 2857   2.394   6.889   8.044  0.0711  0.1213 -0.2162
  163POPS   C2B 2858   2.632   7.159   7.727 -0.3884 -0.1130 -0.1704
  163POPS   D3B 2859   2.674   7.538   7.475 -0.0323 -0.0281 -0.4580
  163POPS   C4B 2860   3.003   7.483   7.135  0.0015  0.0092  0.2444
  163POPS   C5B 2861   3.137   7.535   6.645 -0.1356 -0.0265  0.0269
  164POPS   CNO 2862   7.492   5.538   8.864  0.0016 -0.0377 -0.6267
  164POPS   CNP 2863   7.332   5.658   8.864  0.0044 -0.0284 -0.2860
  164POPS   CNM 2864   7.685   5.590   8.863 -0.0073  0.1177  0.3490
  164POPS   PO4 2865   7.631   5.486   8.607  0.2300  0.1380 -0.1608
  164POPS   GL1 2866   7.585   5.716   8.377  0.6362  0.0066 -0.0956
  164POPS   G1P 2867   7.515   5.828   8.329  0.0317 -0.1690  0.3155
  164POPS   G1M 2868   7.521   5.791   8.477 -0.1163 -0.5949 -0.0825
  164POPS   GL2 2869   7.674   5.546   8.100  0.0080 -0.0165 -0.1458
  164POPS   G2P 2870   7.598   5.530   8.216  0.3354  0.1104  0.0952
  164POPS   G2M 2871   7.661   5.410   8.128 -0.0549  0.1319  0.6628
  164POPS   C1A 2872   7.697   5.259   7.779 -0.0031  0.1680 -0.0093
  164POPS   C2A 2873   7.818   4.931   7.545  0.0683 -0.0762  0.0713
  164POPS   C3A 2874   7.622   4.601   7.312 -0.0374 -0.0738  0.0064
  164POPS   C4A 2875   7.574   4.655   6.851 -0.1929  0.0360  0.0271
  164POPS   C1B 2876   7.631   6.018   7.945 -0.0915  0.0626 -0.0422
  164POPS   C2B 2877   7.347   6.163   7.673 -0.1326 -0.0760 -0.0397
  164POPS   D3B 2878   7.030   6.391   7.531 -0.1598 -0.1242 -0.0967
  164POPS   C4B 2879   6.866   6.520   7.139  0.0055  0.3616  0.0557
  164POPS   C5B 2880   6.516   6.517   6.969  0.1647  0.0536 -0.3661
  165POPS   CNO 2881  10.439   7.796   8.729  0.0987 -0.1939  0.1051
  165POPS   CNP 2882  10.314   7.656   8.798 -0.1591  0.0283  0.0964
  165POPS   CNM 2883  10.609   7.901   8.727 -0.2398  0.3704 -0.2213
  165POPS   PO4 2884  10.510   7.997   8.470  0.2067  0.4642  0.1549
  165POPS   GL1 2885  10.380   8.005   8.051 -0.5165  0.2280  0.0917
  165POPS   G1P 2886  10.306   7.941   8.151 -0.4033 -0.3687 -0.1840
  165POPS   G1M 2887  10.452   7.966   8.165 -0.2386  0.3182 -0.0478
  165POPS   GL2 2888  10.405   8.301   7.939  0.3187  0.0104  0.0320
  165POPS   G2P 2889  10.352   8.175   7.905 -0.3051  0.1882  0.2725
  165POPS   G2M 2890  10.475   8.294   7.818  0.0814  0.6012 -0.1573
  165POPS   C1A 2891  10.037   8.201   7.755 -0.1355  0.1348 -0.0025
  165POPS   C2A 2892   9.670   7.875   7.590  0.2498  0.0506  0.0205
  165POPS   C3A 2893   9.491   7.876   7.270 -0.0945 -0.0918 -0.0070
  165POPS   C4A 2894   9.155   8.011   7.082 -0.5310 -0.4012  0.1567
  165POPS   C1B 2895  10.324   7.772   7.633 -0.3883 -0.0064  0.0923
  165POPS   C2B 2896  10.482   7.511   7.299 -0.2061  0.0860  0.2939
  165POPS   D3B 2897  10.658   7.127   7.190 -0.0587 -0.0517 -0.2335
  165POPS   C4B 2898  10.887   6.827   7.220 -0.1734 -0.0271  0.2680
  165POPS   C5B 2899  11.082   6.438   7.338 -0.0233  0.1505 -0.3765
  166POPS   CNO 2900   7.359  11.345   8.235 -0.3044  0.4102  0.1913
  166POPS   CNP 2901   7.236  11.189   8.211 -0.1684  0.3071  0.1614
  166POPS   CNM 2902   7.481  11.496   8.285  0.4730  0.0321 -0.4561
  166POPS   PO4 2903   7.202  11.589   8.188 -0.1070  0.0543 -0.0797
  166POPS   GL1 2904   7.352  11.735   7.924 -0.0911  0.3075 -0.0325
  166POPS   G1P 2905   7.257  11.827   7.972 -0.1053  0.4095 -0.2485
  166POPS   G1M 2906   7.396  11.863   7.960 -0.3383  0.3088  0.2900
  166POPS   GL2 2907   7.468  12.021   7.920 -0.1277  0.2377 -0.0494
  166POPS   G2P 2908   7.338  11.973   7.895  0.0176 -0.2924  0.1476
  166POPS   G2M 2909   7.459  11.902   7.993 -0.2236  0.1910 -0.1351
  166POPS   C1A 2910   7.653  12.033   7.543  0.1632  0.0246  0.1584
  166POPS   C2A 2911   7.541  12.113   7.072 -0.0029  0.1405 -0.3398
  166POPS   C3A 2912   7.270  11.944   6.678  0.2147  0.0543  0.0151
  166POPS   C4A 2913   7.335  11.616   6.360  0.4903 -0.0513  0.1445
  166POPS   C1B 2914   7.119  12.024   7.540  0.2103 -0.0150  0.1557
  166POPS   C2B 2915   7.044  12.010   7.147 -0.0694 -0.1974 -0.1940
  166POPS   D3B 2916   6.627  12.063   6.995 -0.2519  0.2288  0.0564
  166POPS   C4B 2917   6.243  11.790   7.090  0.0815  0.1285 -0.0222
  166POPS   C5B 2918   5.852  11.789   7.224  0.1840  0.2463 -0.1247
  167POPS   CNO 2919   1.822  10.269   8.660 -0.2445 -0.2249 -0.0746
  167POPS   CNP 2920   2.018  10.237   8.635 -0.1170  0.3830  0.0865
  167POPS   CNM 2921   1.701  10.334   8.806 -0.0649  0.0023 -0.0248
  167POPS   PO4 2922   1.654  10.386   8.595 -0.1864 -0.2112  0.0715
  167POPS   GL1 2923   1.327  10.379   8.343 -0.3836  0.0632  0.1739
  167POPS   G1P 2924   1.219  10.293   8.367 -0.0609 -0.3128  0.3249
  167POPS   G1M 2925   1.389  10.275   8.412 -0.5611 -0.2386 -0.1046
  167POPS   GL2 2926   1.161  10.050   8.265  0.2218 -0.2509 -0.2139
  167POPS   G2P 2927   1.035  10.093   8.306  0.3773  0.0937 -0.0760
  167POPS   G2M 2928   1.181  10.010   8.397 -0.5131 -0.4260 -0.1384
  167POPS   C1A 2929   0.863  10.006   7.907 -0.0356  0.0449  0.2106
  167POPS   C2A 2930   0.528   9.938   8.061 -0.0343 -0.1487  0.0479
  167POPS   C3A 2931   0.076   9.725   7.994 -0.0532 -0.0960 -0.1312
  167POPS   C4A 2932  11.916   9.566   7.716  0.3214  0.0727  0.0270
  167POPS   C1B 2933   1.244  10.425   7.885  0.2911  0.0593 -0.1487
  167POPS   C2B 2934   1.071  10.226   7.437  0.3298  0.0569 -0.0527
  167POPS   D3B 2935   1.102   9.830   7.375  0.2645 -0.1013 -0.0583
  167POPS   C4B 2936   1.466   9.663   7.378  0.0718  0.2493  0.2479
  167POPS   C5B 2937   1.605   9.304   7.528 -0.2353 -0.0753  0.1192
  168POPS   CNO 2938  12.032  12.138   9.116 -0.0685 -0.1691 -0.0671
  168POPS   CNP 2939  12.040  12.118   9.315  0.2526  0.4870  0.0004
  168POPS   CNM 2940  12.118  12.155   8.936  0.3429 -0.1729  0.1242
  168POPS   PO4 2941  11.784   0.062   8.817  0.2335  0.2133 -0.1651
  168POPS   GL1 2942  11.698  12.098   8.527  0.3920 -0.0250 -0.2500
  168POPS   G1P 2943  11.756  11.971   8.514 -0.1738 -0.3580  0.2050
  168POPS   G1M 2944  11.827  12.088   8.581  0.3932  0.1323 -0.2238
  168POPS   GL2 2945  11.591  11.840   8.422  0.1651 -0.0601  0.1811
  168POPS   G2P 2946  11.703  11.924   8.420 -0.1339  0.3612  0.3515
  168POPS   G2M 2947  11.528  11.934   8.505 -0.0699  0.5745 -0.6468
  168POPS   C1A 2948  11.436  11.876   7.980  0.0585 -0.0681  0.1862
  168POPS   C2A 2949  11.099  12.071   7.767 -0.0538 -0.1471  0.3211
  168POPS   C3A 2950  10.804  11.885   7.511 -0.3622  0.1426 -0.2600
  168POPS   C4A 2951  10.661  12.039   7.152 -0.0481  0.1249  0.0180
  168POPS   C1B 2952  11.406   0.189   8.223 -0.0049 -0.1130  0.2777
  168POPS   C2B 2953  11.190   0.435   7.837 -0.2187 -0.1280  0.0552
  168POPS   D3B 2954  10.754   0.293   7.788 -0.1761 -0.1805 -0.1759
  168POPS   C4B 2955  10.675   0.258   7.453  0.0086  0.1422  0.1328
  168POPS   C5B 2956  10.658   0.443   7.147  0.0623  0.0212 -0.2087
  169POPS   CNO 2957   6.785  11.028   8.565 -0.2458  0.3033  0.1790
  169POPS   CNP 2958   6.723  10.959   8.742  0.1209 -0.0394  0.1814
  169POPS   CNM 2959   6.944  10.935   8.486 -0.2975  0.2862  0.0953
  169POPS   PO4 2960   6.885  11.180   8.234 -0.0998  0.2011  0.2200
  169POPS   GL1 2961   6.889  11.253   7.891  0.0766  0.0643  0.4817
  169POPS   G1P 2962   6.756  11.297   7.889  0.2158  0.5076  0.4899
  169POPS   G1M 2963   6.896  11.364   7.976 -0.1678  0.0333  0.5471
  169POPS   GL2 2964   6.851  11.599   7.744 -0.1226 -0.0771 -0.2068
  169POPS   G2P 2965   6.789  11.482   7.789  0.0453  0.0354  0.3604
  169POPS   G2M 2966   6.786  11.614   7.867  0.5190 -0.2493  0.1842
  169POPS   C1A 2967   6.857  11.549   7.307 -0.2608  0.3266 -0.0962
  169POPS   C2A 2968   6.874  11.622   6.858 -0.2698  0.1322 -0.0140
  169POPS   C3A 2969   6.492  11.599   6.605  0.0846 -0.2664 -0.0828
  169POPS   C4A 2970   6.358  11.928   6.267 -0.1512 -0.2280 -0.0672
  169POPS   C1B 2971   6.858  11.072   7.521  0.2359  0.0553  0.0192
  169POPS   C2B 2972   6.571  10.843   7.215 -0.0648  0.1057  0.1758
  169POPS   D3B 2973   6.651  10.337   7.111  0.0682 -0.1474  0.1720
  169POPS   C4B 2974   6.973  10.263   6.786  0.1061  0.0484  0.0484
  169POPS   C5B 2975   6.976  10.156   6.327  0.1480 -0.1355 -0.0664
  170POPC   NC3 2976   9.370   6.955   5.329 -0.0246 -0.0786 -0.0296
  170POPC   PO4 2977   8.929   7.187   5.031  0.1150  0.4966 -0.1371
  170POPC   GL1 2978   9.130   7.447   5.323  0.2468 -0.5584 -0.0918
  170POPC   G1P 2979   9.177   7.443   5.191  0.2055 -0.3750 -0.1139
  170POPC   G1M 2980   9.030   7.387   5.244  0.1728 -0.1168 -0.3508
  170POPC   GL2 2981   9.325   7.291   5.713 -0.1627 -0.1165  0.3172
  170POPC   G2P 2982   9.330   7.423   5.666  0.1685 -0.0338  0.5641
  170POPC   G2M 2983   9.195   7.337   5.695 -0.1200 -0.1118 -0.0083
  170POPC   C1A 2984   9.358   7.112   6.081 -0.0789  0.0321  0.3083
  170POPC   C2A 2985   9.407   6.916   6.513 -0.0348 -0.0794 -0.2839
  170POPC   C3A 2986   9.401   6.868   6.913  0.0721 -0.2248 -0.0227
  170POPC   C4A 2987   9.129   7.053   7.254  0.0515  0.1404  0.0210
  170POPC   C1B 2988   8.872   7.637   5.766 -0.1901 -0.1735 -0.2634
  170POPC   C2B 2989   8.502   7.809   6.059  0.0674  0.1532 -0.0987
  170POPC   D3B 2990   8.291   8.160   6.148 -0.0611  0.1992  0.2675
  170POPC   C4B 2991   8.006   8.456   5.957  0.0002 -0.1293 -0.1184
  170POPC   C5B 2992   7.705   8.678   5.665 -0.0683 -0.2199 -0.0507
  171POPC   NC3 2993  10.766  10.268   5.265 -0.0217 -0.1685  0.1699
  171POPC   PO4 2994  10.776  10.737   4.787 -0.1229  0.1907  0.1883
  171POPC   GL1 2995  11.126  10.570   5.145 -0.3382 -0.1942  0.2668
  171POPC   G1P 2996  11.061  10.655   5.235 -0.7290 -0.4965  0.2804
  171POPC   G1M 2997  11.128  10.706   5.111 -0.1698 -0.3143 -0.2577
  171POPC   GL2 2998  10.947  10.743   5.428 -0.3698  0.0637  0.0880
  171POPC   G2P 2999  11.062  10.761   5.350 -0.0748 -0.5463  0.3496
  171POPC   G2M 3000  10.887  10.850   5.360 -0.5890  0.0296  0.2235
  171POPC   C1A 3001  10.876  10.408   5.799  0.1323 -0.5622  0.0996
  171POPC   C2A 3002  10.785   9.984   6.021  0.0307  0.0841  0.5226
  171POPC   C3A 3003  10.441   9.693   6.162 -0.0272 -0.0318  0.1116
  171POPC   C4A 3004  10.252   9.362   6.454 -0.5404  0.1533 -0.0613
  171POPC   C1B 3005  11.335  10.297   5.381 -0.0866 -0.0860  0.0790
  171POPC   C2B 3006  11.315  10.252   5.884  0.1742  0.1491 -0.3355
  171POPC   D3B 3007  11.406  10.175   6.356 -0.3873  0.0756 -0.1976
  171POPC   C4B 3008  11.411   9.701   6.376 -0.1409 -0.3640 -0.0769
  171POPC   C5B 3009  11.281   9.310   6.437  0.1827 -0.3731 -0.0517
  172POPC   NC3 3010   1.918  11.616   5.470 -0.0628  0.1606 -0.2212
  172POPC   PO4 3011   2.046  11.110   5.091  0.0589  0.0118 -0.0357
  172POPC   GL1 3012   2.137  11.127   5.534 -0.4256 -0.4708 -0.1785
  172POPC   G1P 3013   2.110  11.111   5.670 -0.2847 -0.0796 -0.0973
  172POPC   G1M 3014   2.154  11.016   5.616  0.0813 -0.0877  0.2647
  172POPC   GL2 3015   1.760  11.113   5.747 -0.0466  0.0846 -0.1997
  172POPC   G2P 3016   1.726  11.162   5.874 -0.2496  0.3194 -0.3395
  172POPC   G2M 3017   1.756  11.236   5.814 -0.0075 -0.2385  0.4349
  172POPC   C1A 3018   1.541  11.091   6.145 -0.0694 -0.0811  0.0659
  172POPC   C2A 3019   1.372  11.409   6.470 -0.0569 -0.5699  0.3442
  172POPC   C3A 3020   0.983  11.513   6.535  0.2306  0.0189 -0.1056
  172POPC   C4A 3021   0.701  11.827   6.402 -0.0645 -0.4951  0.3184
  172POPC   C1B 3022   2.291  11.146   5.941  0.0637 -0.2770  0.0550
  172POPC   C2B 3023   2.639  11.212   6.226  0.1427 -0.1724  0.0453
  172POPC   D3B 3024   2.816  11.045   6.577  0.1368  0.0191 -0.0177
  172POPC   C4B 3025   2.830  10.602   6.561  0.0899  0.1807  0.3717
  172POPC   C5B 3026   3.117  10.288   6.541  0.1337  0.1388 -0.0596
  173POPC   NC3 3027  11.514   4.706   4.604  0.0680 -0.0826 -0.2656
  173POPC   PO4 3028  11.078   4.983   4.904  0.0748  0.0038  0.1218
  173POPC   GL1 3029  11.273   4.820   5.176  0.5913  0.0333  0.2182
  173POPC   G1P 3030  11.367   4.716   5.168  0.3901 -0.1236 -0.3136
  173POPC   G1M 3031  11.266   4.758   5.051 -0.1335 -0.1801  0.3429
  173POPC   GL2 3032  11.240   4.612   5.526  0.4223  0.3757 -0.1643
  173POPC   G2P 3033  11.210   4.740   5.574  0.5078  0.2102  0.3551
  173POPC   G2M 3034  11.202   4.728   5.456 -0.0246  0.1372 -0.3389
  173POPC   C1A 3035  11.429   4.551   5.966  0.0731  0.1431 -0.0639
  173POPC   C2A 3036  11.362   4.507   6.459  0.2694  0.1926  0.0151
  173POPC   C3A 3037  11.044   4.621   6.705  0.1745 -0.1077  0.1456
  173POPC   C4A 3038  10.776   5.007   6.804  0.0344 -0.0173 -0.0172
  173POPC   C1B 3039  11.236   5.124   5.597  0.1895  0.0278  0.0119
  173POPC   C2B 3040  11.110   5.159   5.934  0.1229  0.0417  0.1111
  173POPC   D3B 3041  11.133   4.916   6.278 -0.0356  0.0300 -0.1938
  173POPC   C4B 3042  10.628   4.975   6.280 -0.0377 -0.3032  0.1789
  173POPC   C5B 3043  10.320   4.700   6.105  0.5359  0.3258 -0.0301
  174POPC   NC3 3044   7.684  10.056   4.605  0.1308 -0.4315  0.0681
  174POPC   PO4 3045   7.493   9.825   5.078 -0.2635  0.1888 -0.3434
  174POPC   GL1 3046   7.339  10.134   5.418 -0.4732  0.4431 -0.1590
  174POPC   G1P 3047   7.401  10.205   5.521 -0.0892 -0.0009 -0.0706
  174POPC   G1M 3048   7.478  10.122   5.403 -0.5283 -0.1925 -0.3250
  174POPC   GL2 3049   7.661  10.053   5.611 -0.5403 -0.0678  0.2848
  174POPC   G2P 3050   7.703  10.184   5.633 -0.4815 -0.0609  0.1427
  174POPC   G2M 3051   7.758  10.038   5.710 -0.3119  0.6371  0.1946
  174POPC   C1A 3052   7.604  10.354   6.032 -0.0798 -0.2075 -0.0217
  174POPC   C2A 3053   7.356  10.527   6.331  0.0314 -0.2009 -0.0279
  174POPC   C3A 3054   6.940  10.683   6.353  0.1042 -0.0155 -0.3880
  174POPC   C4A 3055   6.585  10.901   6.311 -0.0741  0.2850 -0.2744
  174POPC   C1B 3056   7.177  10.172   5.799  0.0770  0.0820  0.0135
  174POPC   C2B 3057   6.918  10.404   5.925 -0.1599 -0.2383  0.3085
  174POPC   D3B 3058   7.170  10.912   5.922  0.0790  0.0617  0.1286
  174POPC   C4B 3059   7.341  11.044   6.336 -0.2477 -0.3675 -0.2465
  174POPC   C5B 3060   7.337  11.288   6.690  0.0810 -0.1856 -0.3318
  175POPC   NC3 3061  11.306  10.940   4.961 -0.0358  0.0057  0.1784
  175POPC   PO4 3062  11.782  11.194   5.299  0.2289  0.3096  0.0716
  175POPC   GL1 3063  11.812  11.162   5.688 -0.0904  0.2997  0.0484
  175POPC   G1P 3064  11.910  11.251   5.643 -0.3319  0.3952 -0.3102
  175POPC   G1M 3065  11.886  11.280   5.681  0.4799 -0.0419 -0.0280
  175POPC   GL2 3066  11.450  11.262   5.728 -0.0169  0.1532  0.0736
  175POPC   G2P 3067  11.404  11.135   5.766  0.1697  0.0293 -0.1050
  175POPC   G2M 3068  11.314  11.228   5.740 -0.0689  0.4072  0.2513
  175POPC   C1A 3069  11.215  11.665   5.878  0.2960 -0.5418  0.1153
  175POPC   C2A 3070  11.226  11.792   6.251  0.0287 -0.1003 -0.3945
  175POPC   C3A 3071  10.853  11.845   6.623  0.0351 -0.2117  0.2693
  175POPC   C4A 3072  10.753   0.138   6.777  0.2955 -0.0685 -0.0136
  175POPC   C1B 3073  11.929  10.984   6.167  0.2443  0.3844  0.1328
  175POPC   C2B 3074   0.080  11.088   6.548 -0.0576 -0.1240 -0.0132
  175POPC   D3B 3075   0.165  11.337   6.966 -0.0633 -0.1152 -0.0835
  175POPC   C4B 3076   0.613  11.152   7.030  0.1254  0.2476  0.1569
  175POPC   C5B 3077   1.017  10.997   6.956  0.1732 -0.1771  0.0163
  176POPC   NC3 3078   4.772   4.931   4.753  0.0973  0.4352 -0.2834
  176POPC   PO4 3079   4.447   5.349   5.057 -0.2038 -0.3660 -0.1547
  176POPC   GL1 3080   4.441   5.404   5.526  0.2558  0.0928 -0.3727
  176POPC   G1P 3081   4.410   5.279   5.581  0.0534  0.4038  0.2668
  176POPC   G1M 3082   4.391   5.288   5.465 -0.0544 -0.2456  0.4631
  176POPC   GL2 3083   4.439   5.117   5.746 -0.0757 -0.2857  0.4570
  176POPC   G2P 3084   4.328   5.070   5.816 -0.2982 -0.6337 -0.0956
  176POPC   G2M 3085   4.381   5.066   5.629  0.5456 -0.0852  0.0399
  176POPC   C1A 3086   4.539   5.200   6.185  0.0457  0.0915  0.1576
  176POPC   C2A 3087   4.663   5.539   6.460  0.1165 -0.1028  0.3478
  176POPC   C3A 3088   4.752   5.979   6.302 -0.1204  0.0503 -0.3546
  176POPC   C4A 3089   4.731   6.222   5.966  0.2097  0.1068 -0.0444
  176POPC   C1B 3090   4.091   5.480   5.847 -0.2686 -0.1595  0.0400
  176POPC   C2B 3091   3.646   5.271   5.982  0.1901 -0.0267 -0.0762
  176POPC   D3B 3092   3.251   5.107   5.880  0.0184  0.5038 -0.0710
  176POPC   C4B 3093   3.080   5.421   6.076 -0.0413  0.4401  0.0333
  176POPC   C5B 3094   3.095   5.783   6.070 -0.1909  0.2240 -0.0894
  177POPC   NC3 3095   6.068  10.822   4.752 -0.1402  0.1282 -0.0473
  177POPC   PO4 3096   5.880  11.213   5.184 -0.1488 -0.0394 -0.0196
  177POPC   GL1 3097   5.813  11.055   5.652 -0.2608 -0.1772 -0.1287
  177POPC   G1P 3098   5.717  11.046   5.753  0.2775  0.1630  0.4529
  177POPC   G1M 3099   5.736  10.942   5.622  0.1120 -0.3755 -0.3837
  177POPC   GL2 3100   6.144  10.909   5.689  0.5078 -0.0167 -0.1742
  177POPC   G2P 3101   6.065  11.001   5.759 -0.0206 -0.3135 -0.3458
  177POPC   G2M 3102   6.185  11.039   5.658  0.1233  0.0333 -0.5195
  177POPC   C1A 3103   6.272  10.628   6.071  0.0674 -0.0341 -0.0824
  177POPC   C2A 3104   6.508  10.412   6.321 -0.1067 -0.2135  0.0590
  177POPC   C3A 3105   6.486  10.139   6.665  0.1604  0.0556  0.0694
  177POPC   C4A 3106   6.596   9.819   6.873  0.0416  0.2273  0.1592
  177POPC   C1B 3107   5.541  10.773   5.789  0.2505 -0.0365  0.0549
  177POPC   C2B 3108   5.623  10.632   6.252  0.0563 -0.0141 -0.0177
  177POPC   D3B 3109   5.853  10.846   6.606  0.1034 -0.3941  0.0853
  177POPC   C4B 3110   6.292  10.681   6.685  0.2596  0.1272  0.0817
  177POPC   C5B 3111   6.689  10.659   6.746  0.1974  0.1520  0.1487
  178POPC   NC3 3112   0.215   7.098   4.975 -0.0314 -0.0647  0.0704
  178POPC   PO4 3113   0.005   7.601   4.695 -0.0900  0.1879 -0.3026
  178POPC   GL1 3114   0.191   7.601   5.110 -0.3043 -0.6281  0.0233
  178POPC   G1P 3115   0.328   7.570   5.112 -0.0491  0.3185 -0.3174
  178POPC   G1M 3116   0.266   7.631   4.996 -0.4911 -0.4130 -0.0463
  178POPC   GL2 3117   0.056   7.748   5.336  0.1460  0.5292 -0.2358
  178POPC   G2P 3118   0.040   7.874   5.395 -0.0604  0.6272 -0.4965
  178POPC   G2M 3119   0.116   7.743   5.463 -0.1123 -0.2540 -0.1130
  178POPC   C1A 3120   0.149   7.758   5.772 -0.1647  0.2711 -0.2052
  178POPC   C2A 3121  12.065   8.065   6.014 -0.0514  0.4524  0.1654
  178POPC   C3A 3122  11.866   8.184   6.307 -0.2510  0.1697 -0.0041
  178POPC   C4A 3123  11.793   8.517   6.452  0.2534 -0.1344 -0.1591
  178POPC   C1B 3124   0.361   7.271   5.397  0.1752  0.0644  0.2003
  178POPC   C2B 3125   0.680   6.961   5.363  0.0444 -0.0004 -0.0224
  178POPC   D3B 3126   1.070   6.886   5.207  0.3876  0.0067 -0.0539
  178POPC   C4B 3127   1.368   7.152   5.371  0.0819 -0.1914  0.1399
  178POPC   C5B 3128   1.343   7.302   5.791 -0.0749 -0.5680  0.1025
  179POPC   NC3 3129   4.296  10.878   5.106 -0.0421 -0.2859  0.4244
  179POPC   PO4 3130   3.786  11.034   5.357 -0.1158 -0.1773  0.2173
  179POPC   GL1 3131   3.550  11.006   5.674 -0.0083 -0.1318 -0.5153
  179POPC   G1P 3132   3.443  10.990   5.764  0.1629 -0.0004 -0.2832
  179POPC   G1M 3133   3.464  10.966   5.571 -0.2023  0.1636 -0.4746
  179POPC   GL2 3134   3.161  10.890   5.731 -0.4075 -0.2184  0.2795
  179POPC   G2P 3135   3.263  10.932   5.817 -0.5300  0.1616  0.2493
  179POPC   G2M 3136   3.288  10.864   5.678 -0.4256 -0.3556  0.3018
  179POPC   C1A 3137   3.192  10.666   6.086 -0.0331  0.2504  0.0315
  179POPC   C2A 3138   3.369  10.751   6.421 -0.1455  0.3209  0.1886
  179POPC   C3A 3139   3.619  10.773   6.888 -0.3068 -0.1369 -0.4165
  179POPC   C4A 3140   3.735  10.468   7.222  0.1292 -0.2200 -0.0479
  179POPC   C1B 3141   3.641  11.113   6.203 -0.0582 -0.0194 -0.0038
  179POPC   C2B 3142   3.785  11.165   6.638  0.0865  0.1086 -0.2133
  179POPC   D3B 3143   4.120  11.372   6.937 -0.0276 -0.0339 -0.2643
  179POPC   C4B 3144   3.996  11.686   7.128 -0.0436 -0.1696  0.1602
  179POPC   C5B 3145   4.194  11.907   7.436 -0.1400  0.0657 -0.3067
  180POPC   NC3 3146   3.786   2.002   4.763 -0.1963  0.0915  0.0210
  180POPC   PO4 3147   3.620   2.274   5.233  0.2019  0.1415 -0.1702
  180POPC   GL1 3148   3.452   2.295   5.663 -0.0005 -0.3769  0.0928
  180POPC   G1P 3149   3.402   2.390   5.753  0.2699 -0.0455 -0.0950
  180POPC   G1M 3150   3.471   2.406   5.580  0.1241 -0.3233  0.1905
  180POPC   GL2 3151   3.201   2.109   5.483 -0.1491 -0.4334  0.0743
  180POPC   G2P 3152   3.290   2.167   5.574 -0.0127 -0.0184 -0.3046
  180POPC   G2M 3153   3.134   2.122   5.606  0.0850 -0.3650  0.1973
  180POPC   C1A 3154   2.838   1.824   5.615 -0.1112  0.1279 -0.1482
  180POPC   C2A 3155   2.608   1.703   5.984  0.0743 -0.0831  0.1798
  180POPC   C3A 3156   2.302   1.600   6.254 -0.2644  0.1390 -0.3184
  180POPC   C4A 3157   2.136   1.252   6.642 -0.3019 -0.1922  0.2830
  180POPC   C1B 3158   3.579   2.304   6.144  0.1675 -0.1202 -0.3996
  180POPC   C2B 3159   3.739   2.054   6.488  0.3213 -0.1598  0.0868
  180POPC   D3B 3160   4.020   1.797   6.580  0.0393 -0.2651  0.1699
  180POPC   C4B 3161   3.801   1.596   6.823 -0.4129 -0.1195 -0.0101
  180POPC   C5B 3162   3.788   1.132   7.198  0.0429  0.0257 -0.1974
  181POPC   NC3 3163   9.517  12.112   5.008 -0.1879 -0.3304  0.1801
  181POPC   PO4 3164   9.619   0.433   5.262  0.0526 -0.2174 -0.0454
  181POPC   GL1 3165   9.895   0.259   5.617 -0.2490  0.4384  0.1734
  181POPC   G1P 3166   9.785   0.260   5.704 -0.1912  0.1153  0.2556
  181POPC   G1M 3167   9.803   0.284   5.515 -0.5803  0.3084  0.4330
  181POPC   GL2 3168  10.017   0.050   5.727  0.4091 -0.1207  0.0591
  181POPC   G2P 3169  10.107   0.076   5.831  0.4608  0.3908 -0.1004
  181POPC   G2M 3170  10.001   0.156   5.817  0.0119 -0.0312 -0.1090
  181POPC   C1A 3171  10.336  12.097   6.034 -0.2370 -0.1079  0.2560
  181POPC   C2A 3172  10.436  11.922   6.403  0.0125  0.1550 -0.0655
  181POPC   C3A 3173  10.178  11.643   6.581  0.2450  0.3122 -0.2673
  181POPC   C4A 3174   9.913  11.312   6.843 -0.0840  0.1927 -0.1167
  181POPC   C1B 3175   9.857   0.511   5.923  0.0093 -0.0148 -0.0114
  181POPC   C2B 3176   9.561   0.786   6.156  0.1174 -0.1535 -0.0262
  181POPC   D3B 3177   9.235   0.994   6.468 -0.1438 -0.0605 -0.1110
  181POPC   C4B 3178   9.448   1.093   6.670 -0.0658 -0.0435 -0.3388
  181POPC   C5B 3179   9.694   0.940   7.005  0.0649  0.0057  0.0785
  182POPC   NC3 3180   1.507   6.092   4.401 -0.2419 -0.0452  0.0535
  182POPC   PO4 3181   1.428   6.004   4.894  0.2946  0.3435 -0.1211
  182POPC   GL1 3182   1.288   5.767   5.292 -0.0266 -0.0647  0.4904
  182POPC   G1P 3183   1.187   5.738   5.199  0.3658 -0.2103  0.0902
  182POPC   G1M 3184   1.306   5.664   5.199  0.3803  0.3333  0.1049
  182POPC   GL2 3185   1.512   5.586   5.509 -0.1965  0.1416  0.2690
  182POPC   G2P 3186   1.383   5.619   5.465 -0.1910 -0.4069 -0.2454
  182POPC   G2M 3187   1.487   5.716   5.464  0.1400  0.1541  0.0978
  182POPC   C1A 3188   1.257   5.786   5.882  0.0729 -0.2997  0.0079
  182POPC   C2A 3189   1.003   6.054   6.250 -0.0087  0.1813 -0.0012
  182POPC   C3A 3190   1.062   6.337   6.494  0.1163 -0.0732 -0.0836
  182POPC   C4A 3191   0.932   6.726   6.572 -0.3017  0.4039 -0.4423
  182POPC   C1B 3192   0.870   5.756   5.588 -0.4550  0.2559  0.0328
  182POPC   C2B 3193   0.527   5.458   5.690  0.0427 -0.2469 -0.0831
  182POPC   D3B 3194   0.396   5.023   5.743  0.0038 -0.0060 -0.1901
  182POPC   C4B 3195   0.678   4.662   5.715 -0.0949  0.0538  0.1495
  182POPC   C5B 3196   0.947   4.422   6.003 -0.3017  0.2046 -0.0651
  183POPC   NC3 3197   9.690  10.058   5.162  0.1563  0.4841 -0.0260
  183POPC   PO4 3198   9.933   9.510   5.086  0.0102 -0.1186 -0.0641
  183POPC   GL1 3199  10.236   9.505   5.295  0.0701 -0.1613 -0.3692
  183POPC   G1P 3200  10.122   9.426   5.312  0.2087 -0.3412 -0.2611
  183POPC   G1M 3201  10.100   9.473   5.292  0.0039  0.0424  0.0464
  183POPC   GL2 3202  10.283   9.510   5.555 -0.2860  0.4644  0.0142
  183POPC   G2P 3203  10.253   9.558   5.683 -0.6355  0.0945  0.0835
  183POPC   G2M 3204  10.294   9.407   5.650 -0.0311  0.4543 -0.0208
  183POPC   C1A 3205  10.648   9.500   5.742  0.1102 -0.2843 -0.0458
  183POPC   C2A 3206  11.073   9.566   5.983 -0.0962 -0.2218 -0.0043
  183POPC   C3A 3207  11.342   9.332   5.954  0.1062  0.1386  0.0297
  183POPC   C4A 3208  11.629   8.977   6.011 -0.1340 -0.1991 -0.0336
  183POPC   C1B 3209  10.660   9.410   5.219 -0.0525 -0.0476  0.1525
  183POPC   C2B 3210  11.092   9.326   5.439 -0.1509  0.2088  0.1354
  183POPC   D3B 3211  11.223   8.948   5.667  0.2058  0.2115 -0.0297
  183POPC   C4B 3212  11.128   8.556   5.599 -0.1755  0.1282 -0.1535
  183POPC   C5B 3213  10.986   8.210   5.506 -0.0313 -0.1533  0.2232
  184POPC   NC3 3214   7.023   9.266   4.439 -0.1305  0.0708  0.0237
  184POPC   PO4 3215   6.881   9.474   4.982  0.3640  0.0328  0.1248
  184POPC   GL1 3216   6.980   9.731   5.354 -0.1422  0.0330 -0.3217
  184POPC   G1P 3217   6.994   9.845   5.273  0.4891  0.3241  0.1548
  184POPC   G1M 3218   7.052   9.672   5.249  0.1271 -0.3152  0.0442
  184POPC   GL2 3219   6.847  10.012   5.526  0.2843 -0.7122  0.2296
  184POPC   G2P 3220   6.716  10.055   5.499  0.4769 -0.3930 -0.2611
  184POPC   G2M 3221   6.745  10.008   5.622 -0.1575  0.2918 -0.1281
  184POPC   C1A 3222   6.808   9.748   5.828  0.0589 -0.0008  0.2185
  184POPC   C2A 3223   7.059   9.305   5.928 -0.0484  0.1589 -0.3970
  184POPC   C3A 3224   6.919   8.936   6.077 -0.0602  0.3703  0.2851
  184POPC   C4A 3225   6.962   8.701   6.476  0.0535  0.1999  0.1336
  184POPC   C1B 3226   7.283   9.679   5.680 -0.2245  0.1282  0.0608
  184POPC   C2B 3227   7.296   9.755   6.178  0.0464  0.0267 -0.1310
  184POPC   D3B 3228   7.433  10.090   6.519 -0.0302 -0.1060 -0.0759
  184POPC   C4B 3229   7.542   9.897   6.938  0.2350  0.1700 -0.0742
  184POPC   C5B 3230   7.785   9.606   7.107 -0.3702  0.2476 -0.0902
  185POPC   NC3 3231  11.160  10.651   4.477  0.2768 -0.2287  0.1045
  185POPC   PO4 3232  11.543  10.544   4.838 -0.2572 -0.0073  0.2040
  185POPC   GL1 3233  11.876  10.392   5.273 -0.1544  0.4361 -0.3078
  185POPC   G1P 3234  12.013  10.373   5.254 -0.1626 -0.4935  0.2770
  185POPC   G1M 3235  11.890  10.435   5.140 -0.2660 -0.2264 -0.5512
  185POPC   GL2 3236  11.927  10.673   5.486  0.0618  0.0050 -0.1169
  185POPC   G2P 3237  11.984  10.692   5.613  0.5386 -0.4265 -0.2542
  185POPC   G2M 3238  11.860  10.740   5.589  0.0773 -0.5492  0.2762
  185POPC   C1A 3239  11.570  10.715   5.892  0.4008  0.0500  0.0944
  185POPC   C2A 3240  11.469  10.697   6.277  0.1488  0.0362 -0.0885
  185POPC   C3A 3241  11.282  10.591   6.672  0.2981 -0.0292  0.0794
  185POPC   C4A 3242  10.830  10.434   6.713  0.0529 -0.0364 -0.0807
  185POPC   C1B 3243  11.805  10.166   5.716  0.1882 -0.3007  0.3652
  185POPC   C2B 3244  11.678   9.826   5.939  0.0869 -0.0353 -0.4008
  185POPC   D3B 3245  11.797   9.388   6.202 -0.3526  0.1899 -0.0457
  185POPC   C4B 3246  11.898   9.520   6.626  0.0050  0.3092  0.2627
  185POPC   C5B 3247  11.623   9.696   6.865 -0.0518  0.2051  0.1690
  186POPC   NC3 3248  10.848   2.057   5.164 -0.2670  0.0283 -0.0273
  186POPC   PO4 3249  11.326   2.029   4.946  0.1049  0.0688  0.1008
  186POPC   GL1 3250  11.287   1.833   5.389  0.0594 -0.0734  0.0006
  186POPC   G1P 3251  11.401   1.809   5.467 -0.2238  0.3780  0.6016
  186POPC   G1M 3252  11.379   1.843   5.284 -0.0212 -0.1167 -0.0745
  186POPC   GL2 3253  11.412   1.488   5.367  0.0496  0.6344 -0.1085
  186POPC   G2P 3254  11.332   1.556   5.459 -0.0283  0.1411  0.2072
  186POPC   G2M 3255  11.290   1.463   5.301 -0.0905  0.1504  0.3000
  186POPC   C1A 3256  10.968   1.400   5.539 -0.1886  0.1193  0.0066
  186POPC   C2A 3257  10.778   1.499   5.966 -0.0249 -0.1440 -0.0810
  186POPC   C3A 3258  10.769   1.672   6.439 -0.2347 -0.0259 -0.1396
  186POPC   C4A 3259  10.940   1.648   6.755  0.0291 -0.1643  0.1283
  186POPC   C1B 3260  11.281   1.772   5.801 -0.1045 -0.0812 -0.0753
  186POPC   C2B 3261  11.293   1.594   6.148  0.0919  0.0849  0.0758
  186POPC   D3B 3262  11.395   1.354   6.467 -0.1397 -0.0642 -0.3652
  186POPC   C4B 3263  11.457   1.501   6.861 -0.1038  0.0394  0.2749
  186POPC   C5B 3264  11.262   1.798   7.146 -0.1427  0.3780  0.0892
  187POPC   NC3 3265   9.973   4.119   5.346  0.1258  0.2130 -0.1516
  187POPC   PO4 3266  10.100   4.560   5.009 -0.0542 -0.2317  0.0555
  187POPC   GL1 3267  10.307   4.592   5.415  0.5709 -0.5775 -0.3443
  187POPC   G1P 3268  10.292   4.559   5.550  0.2158 -0.0719 -0.2475
  187POPC   G1M 3269  10.270   4.458   5.434  0.2369 -0.4743 -0.2273
  187POPC   GL2 3270  10.205   4.906   5.505 -0.0821 -0.2055 -0.0321
  187POPC   G2P 3271  10.188   5.042   5.477 -0.1741 -0.3021 -0.4808
  187POPC   G2M 3272  10.156   5.032   5.465  0.3008 -0.1626 -0.4056
  187POPC   C1A 3273   9.990   5.176   5.839 -0.0184 -0.1005  0.2522
  187POPC   C2A 3274  10.062   5.141   6.311 -0.0365  0.2477 -0.2011
  187POPC   C3A 3275   9.929   5.077   6.753  0.2216 -0.0884 -0.0548
  187POPC   C4A 3276   9.615   5.288   6.922 -0.1690  0.1806 -0.0943
  187POPC   C1B 3277  10.646   4.320   5.621  0.1137 -0.0413  0.1511
  187POPC   C2B 3278  10.642   4.052   5.991  0.2534 -0.0980  0.0019
  187POPC   D3B 3279  10.820   4.003   6.470 -0.2265  0.1203  0.2603
  187POPC   C4B 3280  11.124   3.732   6.662 -0.2568 -0.1722  0.2724
  187POPC   C5B 3281  11.393   3.606   7.025  0.1118  0.1701  0.0224
  188POPC   NC3 3282   1.720   2.763   5.383 -0.0825 -0.0137  0.1070
  188POPC   PO4 3283   1.731   2.222   5.350  0.2051 -0.1332  0.0015
  188POPC   GL1 3284   1.587   2.236   5.756 -0.1311 -0.1071  0.2260
  188POPC   G1P 3285   1.451   2.209   5.779 -0.0842 -0.0607  0.5913
  188POPC   G1M 3286   1.640   2.148   5.851  0.3136  0.2006  0.2750
  188POPC   GL2 3287   1.857   2.394   5.933  0.6847  0.0890  0.1824
  188POPC   G2P 3288   1.827   2.367   6.067 -0.0156 -0.0351  0.0206
  188POPC   G2M 3289   1.804   2.265   5.944  0.2066  0.2781  0.2211
  188POPC   C1A 3290   2.072   2.726   6.243  0.2286  0.1232  0.4456
  188POPC   C2A 3291   2.023   3.141   6.334 -0.1294  0.0239 -0.1882
  188POPC   C3A 3292   2.121   3.507   6.284 -0.2299 -0.0062 -0.1891
  188POPC   C4A 3293   2.057   3.916   6.481  0.0246  0.0090 -0.1085
  188POPC   C1B 3294   1.386   2.473   6.110  0.1974 -0.2725 -0.2063
  188POPC   C2B 3295   1.051   2.649   5.986 -0.0243  0.1672  0.0879
  188POPC   D3B 3296   0.679   2.557   6.131  0.0715 -0.3163 -0.1695
  188POPC   C4B 3297   0.614   2.218   5.995  0.2250 -0.0726 -0.0879
  188POPC   C5B 3298   0.559   1.867   5.833  0.1414 -0.0514  0.0757
  189POPC   NC3 3299   6.335   5.360   4.849 -0.1150  0.1278  0.2871
  189POPC   PO4 3300   5.860   4.950   4.934  0.0220 -0.1526 -0.2250
  189POPC   GL1 3301   5.906   5.075   5.391 -0.1666  0.0536 -0.1182
  189POPC   G1P 3302   5.855   4.989   5.489  0.1247 -0.1513 -0.1414
  189POPC   G1M 3303   5.771   5.040   5.404 -0.1125 -0.0670  0.1332
  189POPC   GL2 3304   6.226   5.163   5.528  0.0732 -0.0407 -0.3607
  189POPC   G2P 3305   6.166   5.038   5.549  0.1662 -0.0727 -0.2844
  189POPC   G2M 3306   6.197   5.124   5.396  0.5336 -0.0561 -0.4648
  189POPC   C1A 3307   6.017   5.337   5.843  0.0522  0.0130 -0.4851
  189POPC   C2A 3308   6.105   5.514   6.293 -0.0610 -0.1546 -0.3003
  189POPC   C3A 3309   6.246   5.746   6.565  0.1532 -0.2733  0.0061
  189POPC   C4A 3310   6.287   6.169   6.564 -0.2608 -0.2228 -0.1036
  189POPC   C1B 3311   5.882   4.864   5.780 -0.1522  0.0873  0.2001
  189POPC   C2B 3312   5.989   4.628   6.071  0.0950  0.1664  0.1981
  189POPC   D3B 3313   6.082   4.142   6.292 -0.0643 -0.1988  0.0861
  189POPC   C4B 3314   6.432   4.033   6.320 -0.0656  0.4913  0.0184
  189POPC   C5B 3315   6.714   3.724   6.237 -0.1991  0.2914  0.1656
  190POPC   NC3 3316   6.455   9.676   5.089  0.3736  0.0659  0.1745
  190POPC   PO4 3317   6.022   9.461   5.324  0.0336  0.4186 -0.1750
  190POPC   GL1 3318   6.356   9.353   5.583  0.2045  0.2977  0.0215
  190POPC   G1P 3319   6.217   9.345   5.568  0.2403  0.2723 -0.3337
  190POPC   G1M 3320   6.311   9.414   5.465  0.2148  0.7493  0.2451
  190POPC   GL2 3321   6.654   9.392   5.483 -0.6249  0.2862  0.0879
  190POPC   G2P 3322   6.768   9.386   5.403 -0.2821  0.3311  0.5515
  190POPC   G2M 3323   6.742   9.500   5.467 -0.0060 -0.2110 -0.0350
  190POPC   C1A 3324   6.741   9.027   5.627  0.0363 -0.1001  0.1152
  190POPC   C2A 3325   7.190   8.890   5.666 -0.2480 -0.1510  0.0187
  190POPC   C3A 3326   7.551   9.113   5.718 -0.1933 -0.2245  0.0978
  190POPC   C4A 3327   7.813   9.316   5.978  0.0300 -0.0067  0.1043
  190POPC   C1B 3328   6.489   9.274   5.963 -0.0674  0.2390 -0.1545
  190POPC   C2B 3329   6.681   9.259   6.375  0.0131 -0.2462 -0.1559
  190POPC   D3B 3330   7.076   9.276   6.498 -0.0489 -0.0390  0.1639
  190POPC   C4B 3331   7.393   8.994   6.243  0.0198 -0.0984 -0.2594
  190POPC   C5B 3332   7.784   8.846   6.188  0.2639  0.0296  0.1299
  191POPC   NC3 3333   6.011   6.679   4.103  0.3592 -0.1837 -0.0772
  191POPC   PO4 3334   6.018   6.795   4.646 -0.0320 -0.0972 -0.0805
  191POPC   GL1 3335   6.127   6.941   5.123 -0.1718  0.5497 -0.2053
  191POPC   G1P 3336   6.040   6.965   5.230  0.1366  0.3405  0.1031
  191POPC   G1M 3337   6.005   7.005   5.097 -0.3570  0.2903  0.0083
  191POPC   GL2 3338   5.791   7.126   5.229  0.2316 -0.1104 -0.2550
  191POPC   G2P 3339   5.796   6.986   5.218 -0.0702 -0.1013 -0.6232
  191POPC   G2M 3340   5.695   7.032   5.191  0.1411 -0.0381 -0.2068
  191POPC   C1A 3341   5.999   7.301   5.569  0.4370 -0.1458  0.2080
  191POPC   C2A 3342   6.366   7.159   5.839 -0.1215  0.0441  0.0067
  191POPC   C3A 3343   6.650   7.290   6.154 -0.4213  0.1282 -0.0405
  191POPC   C4A 3344   6.834   7.610   6.531  0.1451  0.1941 -0.2057
  191POPC   C1B 3345   6.093   6.772   5.594 -0.0116  0.0279 -0.0937
  191POPC   C2B 3346   5.984   6.470   5.893  0.1385  0.1439 -0.0797
  191POPC   D3B 3347   5.721   6.164   5.961 -0.2496 -0.2013  0.0596
  191POPC   C4B 3348   5.837   6.010   6.270 -0.3714  0.3665  0.0409
  191POPC   C5B 3349   5.643   6.212   6.616 -0.2989 -0.2554  0.0408
  192POPC   NC3 3350   3.397  10.798   5.210 -0.1957 -0.0195 -0.1128
  192POPC   PO4 3351   3.468  11.221   4.840 -0.1135 -0.3461  0.0186
  192POPC   GL1 3352   3.258  11.264   5.311 -0.0216  0.1852  0.2198
  192POPC   G1P 3353   3.125  11.257   5.355 -0.0791  0.1579  0.0454
  192POPC   G1M 3354   3.185  11.313   5.202  0.3977 -0.2741 -0.2952
  192POPC   GL2 3355   2.991  11.495   5.345  0.7633  0.1047 -0.0223
  192POPC   G2P 3356   2.937  11.616   5.390  0.1670 -0.2790  0.3621
  192POPC   G2M 3357   2.925  11.514   5.467  0.2068  0.4789 -0.3572
  192POPC   C1A 3358   3.301  11.783   5.595  0.1383 -0.2824 -0.2830
  192POPC   C2A 3359   3.119  12.068   5.789  0.1093  0.1261 -0.3212
  192POPC   C3A 3360   2.856   0.359   5.917 -0.2001  0.1399 -0.0122
  192POPC   C4A 3361   2.592   0.725   5.748 -0.0575 -0.1628 -0.0157
  192POPC   C1B 3362   3.078  11.377   5.803  0.0336  0.1438  0.1936
  192POPC   C2B 3363   3.154  11.162   6.228 -0.4330 -0.0689  0.1290
  192POPC   D3B 3364   3.326  11.234   6.693 -0.2180 -0.2697 -0.0793
  192POPC   C4B 3365   3.454  11.468   7.002  0.0220  0.1025 -0.0719
  192POPC   C5B 3366   3.691  11.481   7.438  0.0372 -0.0730  0.2393
  193POPC   NC3 3367   4.666   2.847   4.730  0.1143 -0.0375  0.0312
  193POPC   PO4 3368   4.776   2.804   5.280 -0.2524 -0.1772 -0.1250
  193POPC   GL1 3369   4.655   2.948   5.758  0.2329 -0.2819  0.1735
  193POPC   G1P 3370   4.679   2.933   5.621  0.4392 -0.1038  0.1880
  193POPC   G1M 3371   4.581   2.889   5.654 -0.1872  0.0678  0.2590
  193POPC   GL2 3372   4.240   2.911   5.790  0.1641  0.7238  0.0074
  193POPC   G2P 3373   4.198   2.918   5.657 -0.3694  0.0723  0.1196
  193POPC   G2M 3374   4.102   2.893   5.776  0.2771 -0.0647 -0.2879
  193POPC   C1A 3375   3.753   2.889   5.867  0.3229 -0.1389 -0.0531
  193POPC   C2A 3376   3.335   2.768   5.931 -0.0216 -0.3069 -0.1186
  193POPC   C3A 3377   2.815   2.812   6.006 -0.0604  0.0142  0.1830
  193POPC   C4A 3378   2.569   2.773   6.368 -0.0828  0.0305 -0.0551
  193POPC   C1B 3379   4.542   2.816   6.225  0.0974  0.0514  0.0449
  193POPC   C2B 3380   4.446   3.003   6.617 -0.0726 -0.0979  0.0329
  193POPC   D3B 3381   4.417   2.905   7.046 -0.1178 -0.1935  0.0455
  193POPC   C4B 3382   4.330   2.833   7.510 -0.1558 -0.0300 -0.3436
  193POPC   C5B 3383   4.597   2.679   7.803  0.1050  0.0082  0.3288
  194POPC   NC3 3384   4.985   2.401   5.309 -0.2079 -0.0932 -0.0628
  194POPC   PO4 3385   5.194   1.966   5.190  0.2019 -0.1168  0.3724
  194POPC   GL1 3386   5.241   2.082   5.620  0.0143  0.0484  0.2010
  194POPC   G1P 3387   5.219   2.219   5.639  0.4434  0.1508  0.0322
  194POPC   G1M 3388   5.333   2.186   5.638  0.0360  0.0924 -0.1254
  194POPC   GL2 3389   5.502   2.105   5.730  0.3514 -0.0415  0.0497
  194POPC   G2P 3390   5.456   2.129   5.600  0.3170  0.6817  0.1761
  194POPC   G2M 3391   5.369   2.061   5.725  0.3852 -0.1416 -0.0132
  194POPC   C1A 3392   5.319   2.070   6.149 -0.1476 -0.0677  0.0204
  194POPC   C2A 3393   5.327   1.949   6.639 -0.2487 -0.0102 -0.1491
  194POPC   C3A 3394   5.662   1.987   7.031 -0.1443  0.4373  0.0970
  194POPC   C4A 3395   6.024   1.677   7.004 -0.0953 -0.2155 -0.1287
  194POPC   C1B 3396   4.949   2.478   5.902 -0.3992 -0.0210 -0.1535
  194POPC   C2B 3397   4.806   2.379   6.181 -0.2663  0.0072 -0.1340
  194POPC   D3B 3398   4.834   2.652   6.614  0.1424  0.0774 -0.1376
  194POPC   C4B 3399   4.819   2.331   6.990 -0.3220  0.3877  0.2599
  194POPC   C5B 3400   4.448   2.323   7.304 -0.0956 -0.0039  0.2921
  195POPC   NC3 3401   5.989   3.477   4.833  0.2403 -0.3284  0.4721
  195POPC   PO4 3402   6.344   3.797   5.097  0.2383  0.0026 -0.1351
  195POPC   GL1 3403   6.207   3.972   5.475  0.3586 -0.2917  0.4592
  195POPC   G1P 3404   6.158   3.845   5.509 -0.3019 -0.2273 -0.1352
  195POPC   G1M 3405   6.275   3.900   5.377 -0.0838  0.1857 -0.2498
  195POPC   GL2 3406   6.352   3.974   5.830 -0.1147  0.1519 -0.3320
  195POPC   G2P 3407   6.278   3.864   5.785  0.0275 -0.1130  0.0514
  195POPC   G2M 3408   6.357   3.868   5.921  0.0469  0.0560 -0.4485
  195POPC   C1A 3409   6.134   3.725   6.022  0.1218  0.0833  0.2857
  195POPC   C2A 3410   5.666   3.676   6.213  0.0528 -0.1532 -0.2865
  195POPC   C3A 3411   5.478   3.297   6.016 -0.0858  0.1436  0.1951
  195POPC   C4A 3412   5.124   3.179   5.828  0.3293  0.0861  0.0768
  195POPC   C1B 3413   6.334   4.390   5.636  0.3044 -0.4855  0.3321
  195POPC   C2B 3414   6.439   4.763   5.836  0.0922 -0.1632  0.1649
  195POPC   D3B 3415   6.682   5.189   5.726  0.0044 -0.3535 -0.1139
  195POPC   C4B 3416   6.481   5.559   5.838 -0.2680  0.4732 -0.0319
  195POPC   C5B 3417   6.208   5.844   5.912  0.1158 -0.1717  0.1320
  196POPC   NC3 3418   6.652   8.589   5.041 -0.2836 -0.1946 -0.0974
  196POPC   PO4 3419   7.037   8.102   4.993 -0.2271 -0.2171  0.0802
  196POPC   GL1 3420   7.180   8.060   5.383 -0.1864  0.4852  0.2918
  196POPC   G1P 3421   7.202   7.983   5.497  0.2122  0.2223  0.0493
  196POPC   G1M 3422   7.120   7.934   5.381 -0.0889  0.4360  0.4247
  196POPC   GL2 3423   7.536   8.203   5.354 -0.3537  0.1537 -0.1296
  196POPC   G2P 3424   7.579   8.289   5.456 -0.1272 -0.0441 -0.0565
  196POPC   G2M 3425   7.577   8.325   5.299  0.2390  0.0953  0.1397
  196POPC   C1A 3426   7.527   8.241   5.787 -0.0140 -0.2703 -0.1768
  196POPC   C2A 3427   7.369   8.055   6.121 -0.1164 -0.1965  0.1671
  196POPC   C3A 3428   6.907   8.148   6.377 -0.0570  0.1717  0.2781
  196POPC   C4A 3429   6.598   8.379   6.532  0.3562 -0.2085 -0.1622
  196POPC   C1B 3430   7.033   7.939   5.757  0.0733  0.0722  0.1525
  196POPC   C2B 3431   7.095   7.633   6.042 -0.0035  0.0982 -0.2104
  196POPC   D3B 3432   7.079   7.262   5.867  0.2442 -0.1747  0.0483
  196POPC   C4B 3433   6.886   6.887   6.050  0.1198 -0.3413 -0.1599
  196POPC   C5B 3434   6.761   6.640   6.456  0.4899 -0.1267 -0.1324
  197POPC   NC3 3435   0.425   1.931   4.532  0.3705 -0.1000  0.0239
  197POPC   PO4 3436   0.451   2.200   5.007  0.0850 -0.0406 -0.0264
  197POPC   GL1 3437   0.486   2.245   5.494 -0.0053  0.3301 -0.0440
  197POPC   G1P 3438   0.517   2.132   5.417 -0.2773  0.2206  0.0036
  197POPC   G1M 3439   0.414   2.198   5.383  0.2139  0.0748 -0.0841
  197POPC   GL2 3440   0.557   2.547   5.569  0.2631 -0.2579 -0.0814
  197POPC   G2P 3441   0.609   2.596   5.690 -0.3920  0.3789 -0.0223
  197POPC   G2M 3442   0.664   2.559   5.479  0.4400 -0.1088  0.1405
  197POPC   C1A 3443   0.275   2.774   5.815  0.0641 -0.0563  0.0846
  197POPC   C2A 3444   0.200   3.145   6.149  0.1200 -0.0682 -0.2182
  197POPC   C3A 3445   0.208   3.529   6.291  0.2103  0.2060  0.0658
  197POPC   C4A 3446   0.240   3.716   6.661  0.1497 -0.1425  0.3333
  197POPC   C1B 3447   0.098   2.248   5.853 -0.0393  0.3359 -0.0373
  197POPC   C2B 3448   0.186   2.536   6.293  0.3175  0.1504  0.2098
  197POPC   D3B 3449   0.194   2.772   6.765 -0.1242 -0.2346 -0.3847
  197POPC   C4B 3450  12.138   2.551   7.180  0.0756 -0.4583  0.0730
  197POPC   C5B 3451  12.128   2.248   7.512 -0.0408 -0.1313 -0.2959
  198POPC   NC3 3452   5.059  11.460   5.427 -0.1799  0.2047 -0.0989
  198POPC   PO4 3453   5.108  12.119   5.439 -0.0662 -0.0131 -0.1514
  198POPC   GL1 3454   5.037   0.180   5.740 -0.0670  0.2692 -0.2933
  198POPC   G1P 3455   5.082   0.105   5.632  0.1921  0.0756 -0.0575
  198POPC   G1M 3456   4.912   0.153   5.684 -0.1529 -0.0748  0.0444
  198POPC   GL2 3457   5.344   0.171   5.849  0.1892  0.2084 -0.2829
  198POPC   G2P 3458   5.212   0.144   5.811  0.1470  0.0440 -0.0358
  198POPC   G2M 3459   5.268   0.244   5.941 -0.0709 -0.2733 -0.0966
  198POPC   C1A 3460   5.348  11.952   6.004 -0.0596 -0.3749 -0.2371
  198POPC   C2A 3461   5.573  11.717   6.401  0.3100  0.0723  0.0322
  198POPC   C3A 3462   5.857  11.991   6.687  0.0329  0.0134  0.0536
  198POPC   C4A 3463   6.242  12.105   6.739 -0.1249 -0.3205  0.2514
  198POPC   C1B 3464   5.020   0.503   5.984 -0.0310  0.3827  0.1521
  198POPC   C2B 3465   5.013   0.732   6.323 -0.1863 -0.1437  0.0107
  198POPC   D3B 3466   5.148   0.577   6.720  0.1332 -0.0391  0.2388
  198POPC   C4B 3467   5.525   0.623   7.097  0.0243  0.0020  0.4189
  198POPC   C5B 3468   5.821   0.641   7.435  0.3204  0.3290  0.2096
  199POPC   NC3 3469   8.400   2.104   4.399 -0.1679  0.0487 -0.0446
  199POPC   PO4 3470   8.522   1.745   4.877  0.3357  0.3202  0.2204
  199POPC   GL1 3471   8.506   1.569   5.331 -0.4163 -0.0251 -0.1638
  199POPC   G1P 3472   8.427   1.589   5.445 -0.5141 -0.1454 -0.2093
  199POPC   G1M 3473   8.421   1.460   5.306 -0.6865  0.1081  0.1477
  199POPC   GL2 3474   8.612   1.347   5.451 -0.0554 -0.2924  0.2084
  199POPC   G2P 3475   8.503   1.389   5.528 -0.1683  0.0611 -0.1300
  199POPC   G2M 3476   8.582   1.211   5.441 -0.1229 -0.2639 -0.0059
  199POPC   C1A 3477   8.945   1.548   5.636  0.1814  0.0232  0.2598
  199POPC   C2A 3478   9.293   1.767   5.874  0.0210 -0.0758  0.3391
  199POPC   C3A 3479   9.607   2.081   6.176  0.1956 -0.0515 -0.0961
  199POPC   C4A 3480   9.916   2.267   6.468  0.1645 -0.0877  0.0492
  199POPC   C1B 3481   8.496   1.835   5.783  0.0639  0.2406 -0.0047
  199POPC   C2B 3482   8.585   2.027   6.102  0.0400 -0.5103  0.1930
  199POPC   D3B 3483   8.744   1.837   6.580  0.2596 -0.2675  0.2134
  199POPC   C4B 3484   8.956   2.100   6.859 -0.1547  0.1330  0.1686
  199POPC   C5B 3485   9.196   2.266   7.167 -0.3246 -0.0292 -0.0791
  200POPC   NC3 3486   1.930   1.041   4.990  0.2009  0.2330  0.1773
  200POPC   PO4 3487   1.624   1.533   5.126 -0.0241  0.1320  0.0100
  200POPC   GL1 3488   1.670   1.694   5.584  0.3175 -0.1168  0.3786
  200POPC   G1P 3489   1.686   1.584   5.498 -0.2015 -0.3683  0.5852
  200POPC   G1M 3490   1.682   1.566   5.639 -0.2026 -0.1676  0.3960
  200POPC   GL2 3491   1.729   1.350   5.708  0.3978 -0.0959  0.2138
  200POPC   G2P 3492   1.731   1.280   5.829 -0.2748  0.1308  0.3774
  200POPC   G2M 3493   1.668   1.417   5.815  0.1159 -0.1324  0.0796
  200POPC   C1A 3494   2.112   1.509   5.774 -0.1744 -0.2981  0.4230
  200POPC   C2A 3495   2.157   2.015   5.840 -0.1262  0.0887 -0.1731
  200POPC   C3A 3496   2.083   2.091   6.286 -0.1137 -0.0170  0.0239
  200POPC   C4A 3497   2.230   1.896   6.726 -0.1878 -0.0527 -0.3742
  200POPC   C1B 3498   1.722   1.843   6.002 -0.0065  0.0772 -0.2962
  200POPC   C2B 3499   1.538   2.021   6.357  0.0155  0.2199 -0.0313
  200POPC   D3B 3500   1.309   2.015   6.630 -0.3607 -0.1162  0.1537
  200POPC   C4B 3501   1.380   2.494   6.877 -0.1952  0.1706 -0.0383
  200POPC   C5B 3502   1.658   2.862   6.890  0.1328  0.0455 -0.3963
  201POPC   NC3 3503   2.496   9.819   5.430  0.1344 -0.1055 -0.1636
  201POPC   PO4 3504   2.095  10.066   5.167 -0.0824  0.0829 -0.0021
  201POPC   GL1 3505   2.073  10.121   5.656  0.3374  0.0952  0.3786
  201POPC   G1P 3506   2.081  10.021   5.754  0.3788 -0.1941  0.0895
  201POPC   G1M 3507   2.136   9.996   5.665  0.0573 -0.1216 -0.2997
  201POPC   GL2 3508   1.838  10.396   5.646  0.0140  0.0806 -0.0933
  201POPC   G2P 3509   1.972  10.374   5.680  0.0495  0.4674  0.0418
  201POPC   G2M 3510   1.856  10.332   5.523 -0.2143 -0.0437 -0.0651
  201POPC   C1A 3511   1.936  10.735   5.968  0.1411  0.0661  0.3018
  201POPC   C2A 3512   1.895  10.824   6.449  0.0003  0.0895 -0.1084
  201POPC   C3A 3513   1.931  10.800   6.841 -0.2109 -0.0657 -0.3462
  201POPC   C4A 3514   2.168  11.029   7.100 -0.1821 -0.2306 -0.1861
  201POPC   C1B 3515   2.389  10.154   5.968  0.3859  0.1164  0.4211
  201POPC   C2B 3516   2.850  10.224   6.080  0.0039 -0.3175 -0.0622
  201POPC   D3B 3517   3.179   9.927   6.174  0.3038 -0.3068 -0.0364
  201POPC   C4B 3518   3.395   9.685   6.337 -0.2379  0.2023 -0.5519
  201POPC   C5B 3519   3.759   9.528   6.408 -0.0573 -0.1029  0.0297
  202POPC   NC3 3520   8.056   5.802   4.339 -0.1655  0.1086  0.0855
  202POPC   PO4 3521   7.935   6.070   4.892 -0.1218  0.0377  0.3425
  202POPC   GL1 3522   7.972   5.946   5.416 -0.2348  0.4889  0.1260
  202POPC   G1P 3523   7.892   5.833   5.438  0.2201  0.1108 -0.0629
  202POPC   G1M 3524   7.891   5.964   5.303 -0.0692  0.0257 -0.0799
  202POPC   GL2 3525   8.088   6.273   5.471  0.1751  0.1054 -0.1800
  202POPC   G2P 3526   8.135   6.182   5.566  0.3704 -0.1494 -0.5118
  202POPC   G2M 3527   8.001   6.211   5.562  0.0437  0.3381 -0.1413
  202POPC   C1A 3528   7.980   6.334   5.946  0.1574 -0.1844  0.2558
  202POPC   C2A 3529   7.854   6.716   6.164 -0.1036 -0.0328  0.3849
  202POPC   C3A 3530   7.942   7.137   6.278 -0.1344 -0.0940  0.0162
  202POPC   C4A 3531   7.775   7.321   6.599  0.2020  0.0786  0.4158
  202POPC   C1B 3532   7.751   5.866   5.862 -0.1277 -0.0869  0.0374
  202POPC   C2B 3533   7.467   5.852   6.206 -0.0484 -0.3224 -0.4321
  202POPC   D3B 3534   7.413   5.438   6.461 -0.2922  0.1820  0.0031
  202POPC   C4B 3535   7.382   5.018   6.323 -0.1388  0.1420  0.0067
  202POPC   C5B 3536   7.657   4.774   6.400 -0.2929  0.1129 -0.1364
  203POPC   NC3 3537   3.656   8.565   5.393  0.0123 -0.1631 -0.0267
  203POPC   PO4 3538   3.223   8.609   5.616 -0.0331 -0.0610 -0.3416
  203POPC   GL1 3539   3.021   8.923   5.945  0.3525  0.0684 -0.3592
  203POPC   G1P 3540   3.036   8.917   6.084 -0.2373  0.3264 -0.2707
  203POPC   G1M 3541   3.153   8.957   5.910  0.2724  0.5089 -0.2573
  203POPC   GL2 3542   2.707   9.047   5.781 -0.3703  0.0085  0.0650
  203POPC   G2P 3543   2.627   9.155   5.817 -0.1115  0.4497 -0.5814
  203POPC   G2M 3544   2.585   8.980   5.793 -0.4403  0.1605  0.2223
  203POPC   C1A 3545   2.645   8.657   5.801  0.2448  0.1093 -0.1448
  203POPC   C2A 3546   2.688   8.330   6.140 -0.1952 -0.2220  0.0501
  203POPC   C3A 3547   2.802   7.924   6.172  0.2078 -0.2069 -0.0234
  203POPC   C4A 3548   2.804   7.465   5.869  0.0085 -0.0417 -0.0476
  203POPC   C1B 3549   2.797   8.967   6.299  0.0410 -0.1478 -0.3979
  203POPC   C2B 3550   2.523   9.166   6.562 -0.1092 -0.0355 -0.1375
  203POPC   D3B 3551   2.073   9.269   6.522 -0.2451  0.1245  0.2829
  203POPC   C4B 3552   1.922   9.003   6.850 -0.2381 -0.1918  0.0124
  203POPC   C5B 3553   1.889   8.621   7.120 -0.1161 -0.2273 -0.1398
  204POPC   NC3 3554   8.528   4.670   5.549 -0.1980 -0.4009 -0.1191
  204POPC   PO4 3555   8.524   5.102   5.275  0.0705 -0.0508 -0.3722
  204POPC   GL1 3556   8.693   5.123   5.744  0.3074  0.5039 -0.2978
  204POPC   G1P 3557   8.819   5.103   5.800  0.3454 -0.0288 -0.5341
  204POPC   G1M 3558   8.730   5.141   5.610  0.1266  0.3715 -0.3686
  204POPC   GL2 3559   9.016   5.186   5.920  0.1890  0.4112  0.2209
  204POPC   G2P 3560   9.151   5.179   5.953  0.0918 -0.2152  0.5591
  204POPC   G2M 3561   9.014   5.223   6.055 -0.0645 -0.3035  0.4344
  204POPC   C1A 3562   8.920   5.493   6.101  0.2948 -0.3816 -0.0655
  204POPC   C2A 3563   8.689   5.636   6.537 -0.0938 -0.2273 -0.3890
  204POPC   C3A 3564   8.325   5.828   6.778  0.1208 -0.1113 -0.2058
  204POPC   C4A 3565   7.824   5.777   6.697 -0.0024 -0.1418  0.1039
  204POPC   C1B 3566   8.423   5.304   6.085 -0.4065  0.0065  0.0589
  204POPC   C2B 3567   8.343   5.254   6.601 -0.1142  0.1920  0.1031
  204POPC   D3B 3568   8.228   5.307   7.030  0.2159  0.1648  0.2606
  204POPC   C4B 3569   8.535   5.321   7.225 -0.1316 -0.3260 -0.2060
  204POPC   C5B 3570   9.006   5.277   7.453 -0.1314  0.3018 -0.2597
  205POPC   NC3 3571   0.958   9.118   5.109 -0.1003  0.0600 -0.1015
  205POPC   PO4 3572   0.943   8.620   5.216  0.1715  0.0184 -0.1350
  205POPC   GL1 3573   0.989   8.838   5.544  0.0362  0.3484  0.2591
  205POPC   G1P 3574   1.126   8.866   5.542  0.1527 -0.0868 -0.7331
  205POPC   G1M 3575   1.054   8.724   5.497 -0.0712  0.4348 -0.1155
  205POPC   GL2 3576   1.040   8.544   5.761  0.0272 -0.0744  0.1555
  205POPC   G2P 3577   0.957   8.513   5.653  0.0811 -0.5682  0.2462
  205POPC   G2M 3578   1.102   8.448   5.681 -0.0426 -0.2109  0.2627
  205POPC   C1A 3579   1.198   8.667   6.095 -0.0727  0.3107  0.1211
  205POPC   C2A 3580   1.467   8.692   6.461 -0.0313  0.0134  0.1014
  205POPC   C3A 3581   1.842   8.554   6.629  0.2946 -0.3835 -0.3648
  205POPC   C4A 3582   2.012   8.162   6.760  0.3685 -0.1543 -0.0892
  205POPC   C1B 3583   0.808   9.021   5.959  0.1238  0.1978  0.1140
  205POPC   C2B 3584   0.676   9.386   5.965 -0.5032 -0.2930  0.1730
  205POPC   D3B 3585   0.472   9.662   5.833 -0.1494 -0.0252  0.0953
  205POPC   C4B 3586   0.062   9.949   5.926  0.0801 -0.3072 -0.2459
  205POPC   C5B 3587  11.999  10.003   6.296 -0.1010  0.1950 -0.3892
  206POPC   NC3 3588   2.995   5.253   5.211 -0.0420 -0.0286 -0.2047
  206POPC   PO4 3589   2.724   4.827   4.927 -0.0881 -0.0488 -0.0966
  206POPC   GL1 3590   2.573   4.961   5.351  0.0966 -0.0911  0.0939
  206POPC   G1P 3591   2.484   5.001   5.250  0.0206 -0.4047  0.0308
  206POPC   G1M 3592   2.611   4.900   5.230 -0.1489  0.3215 -0.2061
  206POPC   GL2 3593   2.667   5.254   5.598 -0.0821  0.3360  0.4676
  206POPC   G2P 3594   2.611   5.357   5.520  0.5783  0.0548 -0.4708
  206POPC   G2M 3595   2.791   5.302   5.553 -0.0722 -0.1549 -0.0819
  206POPC   C1A 3596   2.807   4.982   5.913 -0.1845  0.0748  0.3207
  206POPC   C2A 3597   2.871   5.053   6.377 -0.1207  0.1396 -0.0546
  206POPC   C3A 3598   3.203   5.211   6.690 -0.0833 -0.0985 -0.1217
  206POPC   C4A 3599   3.444   5.473   6.459 -0.1382 -0.0283 -0.1171
  206POPC   C1B 3600   2.405   4.715   5.708  0.3141 -0.0532  0.3165
  206POPC   C2B 3601   2.375   4.320   5.957  0.1820  0.3821  0.0817
  206POPC   D3B 3602   2.242   3.916   6.006  0.0268  0.1533  0.1652
  206POPC   C4B 3603   2.599   3.579   6.250 -0.0147  0.0721  0.0452
  206POPC   C5B 3604   2.681   3.230   6.468  0.2091  0.0407  0.4077
  207POPC   NC3 3605   2.736   1.076   4.452  0.1113  0.0569 -0.2178
  207POPC   PO4 3606   2.872   1.385   4.925  0.0228 -0.2230 -0.1114
  207POPC   GL1 3607   2.763   1.312   5.359 -0.3677 -0.3207  0.0226
  207POPC   G1P 3608   2.644   1.317   5.431 -0.2164 -0.0357  0.2619
  207POPC   G1M 3609   2.718   1.289   5.229 -0.0606 -0.1525 -0.1204
  207POPC   GL2 3610   3.112   1.348   5.476 -0.3850  0.1105  0.0839
  207POPC   G2P 3611   3.164   1.388   5.600  0.0720  0.3032 -0.1570
  207POPC   G2M 3612   3.044   1.403   5.586 -0.2012  0.3958  0.0622
  207POPC   C1A 3613   2.945   1.278   5.894  0.1714  0.1455 -0.1482
  207POPC   C2A 3614   3.167   1.226   6.271 -0.1627  0.3321 -0.2740
  207POPC   C3A 3615   3.430   0.948   6.491 -0.2689  0.2683 -0.0475
  207POPC   C4A 3616   3.201   0.662   6.773  0.1082 -0.0660 -0.0918
  207POPC   C1B 3617   2.524   1.208   5.694  0.1321 -0.1452  0.2350
  207POPC   C2B 3618   2.156   0.951   5.688  0.1096  0.0577 -0.0471
  207POPC   D3B 3619   1.762   0.886   5.930 -0.1323 -0.1608  0.0230
  207POPC   C4B 3620   1.614   0.523   6.162  0.1237 -0.1673  0.2341
  207POPC   C5B 3621   1.166   0.400   6.261  0.2043 -0.1189 -0.0307
  208POPC   NC3 3622   6.129   2.659   5.405  0.2664  0.1260 -0.1704
  208POPC   PO4 3623   6.143   2.141   5.244  0.1441 -0.0030 -0.2809
  208POPC   GL1 3624   6.383   1.985   5.618 -0.1532 -0.1022 -0.0434
  208POPC   G1P 3625   6.475   1.889   5.661 -0.0596  0.0550  0.1138
  208POPC   G1M 3626   6.479   1.972   5.517 -0.0625 -0.0907  0.0404
  208POPC   GL2 3627   6.076   1.840   5.673 -0.0082  0.4648 -0.0502
  208POPC   G2P 3628   6.152   1.913   5.580 -0.2356  0.6756 -0.0765
  208POPC   G2M 3629   6.142   1.783   5.564  0.2330 -0.1609  0.3933
  208POPC   C1A 3630   5.985   2.343   5.771 -0.5890  0.2857 -0.0181
  208POPC   C2A 3631   5.763   2.521   6.082  0.2008 -0.1466 -0.1986
  208POPC   C3A 3632   5.668   2.867   6.249  0.0183 -0.1335 -0.0925
  208POPC   C4A 3633   5.695   3.180   6.453 -0.1086 -0.0113  0.0358
  208POPC   C1B 3634   6.774   1.926   5.825  0.0459 -0.3579  0.3400
  208POPC   C2B 3635   7.209   1.820   5.788  0.2619 -0.2945 -0.0958
  208POPC   D3B 3636   7.589   1.759   5.930 -0.1382 -0.0683  0.1282
  208POPC   C4B 3637   7.696   1.415   6.225  0.1877 -0.0291 -0.2297
  208POPC   C5B 3638   8.003   1.207   6.307  0.1520 -0.0778  0.4436
  209POPC   NC3 3639   3.682  11.449   5.192 -0.3409 -0.0390 -0.1077
  209POPC   PO4 3640   3.472  11.921   5.077  0.1439 -0.3800 -0.0604
  209POPC   GL1 3641   3.694   0.073   5.388  0.1766  0.0675  0.1157
  209POPC   G1P 3642   3.833   0.058   5.395  0.1970  0.1379 -0.1062
  209POPC   G1M 3643   3.638  -0.044   5.336  0.4340 -0.0754  0.1523
  209POPC   GL2 3644   3.774  11.945   5.606  0.0180  0.0204  0.2902
  209POPC   G2P 3645   3.837  11.890   5.718  0.2898 -0.1582  0.0564
  209POPC   G2M 3646   3.640  11.933   5.647 -0.1168  0.1860 -0.0737
  209POPC   C1A 3647   3.578  12.121   5.933 -0.1387 -0.2729 -0.2268
  209POPC   C2A 3648   3.215   0.061   6.240  0.2980 -0.3353 -0.2077
  209POPC   C3A 3649   3.258   0.124   6.633  0.1296 -0.0367  0.2653
  209POPC   C4A 3650   3.374   0.259   7.058 -0.0295 -0.0656  0.1556
  209POPC   C1B 3651   3.950   0.335   5.752  0.0255  0.0330  0.2142
  209POPC   C2B 3652   4.136   0.220   6.159  0.1363 -0.1179  0.0924
  209POPC   D3B 3653   4.284   0.158   6.616  0.1824  0.1815 -0.0339
  209POPC   C4B 3654   4.426   0.462   6.906 -0.0648 -0.0348 -0.3307
  209POPC   C5B 3655   4.184   0.841   7.076 -0.2440  0.2409  0.0496
  210POPC   NC3 3656   0.271   6.426   4.675  0.1588  0.1799  0.0444
  210POPC   PO4 3657   0.789   6.530   4.980 -0.3278 -0.0405 -0.0722
  210POPC   GL1 3658   0.823   6.473   5.429  0.1170 -0.1680 -0.5150
  210POPC   G1P 3659   0.961   6.480   5.453 -0.0368  0.3049  0.5474
  210POPC   G1M 3660   0.887   6.410   5.322  0.5271  0.2348 -0.5215
  210POPC   GL2 3661   0.666   6.215   5.443 -0.3147 -0.3567 -0.4562
  210POPC   G2P 3662   0.629   6.082   5.467 -0.0448 -0.3984 -0.2481
  210POPC   G2M 3663   0.760   6.139   5.372  0.4409 -0.1385  0.2275
  210POPC   C1A 3664   1.202   6.259   5.677 -0.1887  0.1156 -0.2132
  210POPC   C2A 3665   1.445   6.276   6.050  0.0249 -0.1487  0.2903
  210POPC   C3A 3666   1.561   6.598   6.489 -0.1250 -0.1968 -0.1171
  210POPC   C4A 3667   1.453   6.779   6.836 -0.1243 -0.0102  0.0804
  210POPC   C1B 3668   0.987   6.713   5.761 -0.0637  0.0255  0.1616
  210POPC   C2B 3669   1.385   6.772   5.790  0.1304  0.1867  0.2062
  210POPC   D3B 3670   1.875   6.622   5.835 -0.0026  0.0025  0.1367
  210POPC   C4B 3671   2.019   6.481   6.172 -0.0655 -0.0827  0.0788
  210POPC   C5B 3672   1.961   6.181   6.476 -0.1506  0.3461 -0.0181
  211POPC   NC3 3673   9.279  10.443   4.379  0.2362  0.0943 -0.0690
  211POPC   PO4 3674   9.451  10.204   4.771  0.2122  0.0697 -0.0718
  211POPC   GL1 3675   9.263  10.334   5.146  0.2161  0.0536 -0.3145
  211POPC   G1P 3676   9.248  10.412   5.261  0.2498 -0.4026  0.0158
  211POPC   G1M 3677   9.300  10.263   5.261 -0.5219  0.2420  0.0727
  211POPC   GL2 3678   9.128  10.640   5.182 -0.1561  0.0928 -0.3131
  211POPC   G2P 3679   9.060  10.618   5.062 -0.0090  0.0935 -0.3970
  211POPC   G2M 3680   9.044  10.750   5.165 -0.3476 -0.0108 -0.0762
  211POPC   C1A 3681   9.232  10.858   5.477  0.2747  0.1084 -0.1123
  211POPC   C2A 3682   9.255  11.158   5.839  0.1341 -0.2578  0.2542
  211POPC   C3A 3683   9.180  10.961   6.251  0.1100 -0.1293 -0.0904
  211POPC   C4A 3684   9.409  11.122   6.667  0.0653  0.1532  0.3301
  211POPC   C1B 3685   8.991  10.290   5.505 -0.0242 -0.1990  0.1821
  211POPC   C2B 3686   8.875   9.917   5.803 -0.2620  0.3725  0.1724
  211POPC   D3B 3687   8.995   9.548   5.901  0.0891  0.0841 -0.1723
  211POPC   C4B 3688   9.046   9.455   6.356 -0.0488  0.0297 -0.2614
  211POPC   C5B 3689   9.303   9.182   6.587 -0.2656  0.3081 -0.0937
  212POPC   NC3 3690   3.311   8.019   4.814  0.0024 -0.0631  0.2259
  212POPC   PO4 3691   3.607   8.116   5.324 -0.0337 -0.0408  0.1507
  212POPC   GL1 3692   3.640   8.042   5.704  0.0123 -0.2886 -0.3366
  212POPC   G1P 3693   3.545   8.121   5.769  0.6302  0.3066 -0.0917
  212POPC   G1M 3694   3.570   8.125   5.616 -0.1902  0.1439  0.1994
  212POPC   GL2 3695   3.903   8.136   5.741  0.1335 -0.0875 -0.2722
  212POPC   G2P 3696   3.988   8.232   5.687 -0.0886  0.0788 -0.3340
  212POPC   G2M 3697   3.974   8.117   5.860 -0.3458  0.5970  0.1566
  212POPC   C1A 3698   4.179   8.473   6.019  0.1747  0.0916  0.0225
  212POPC   C2A 3699   4.118   8.572   6.430  0.0168 -0.0806 -0.1922
  212POPC   C3A 3700   4.417   8.449   6.770  0.1759 -0.2724 -0.2023
  212POPC   C4A 3701   4.589   8.593   7.114 -0.1732  0.0689  0.0088
  212POPC   C1B 3702   3.771   7.962   6.174 -0.1948  0.3234 -0.1648
  212POPC   C2B 3703   3.570   7.909   6.636  0.0564  0.2093  0.2374
  212POPC   D3B 3704   3.441   7.706   7.123  0.0946 -0.0459 -0.2802
  212POPC   C4B 3705   3.612   7.425   7.453  0.2239 -0.0921  0.0490
  212POPC   C5B 3706   3.976   7.345   7.603 -0.1707 -0.1294  0.1983
  213POPC   NC3 3707   2.290   4.994   4.928 -0.0636  0.1850  0.3409
  213POPC   PO4 3708   2.516   5.409   5.126 -0.0383  0.2796  0.3567
  213POPC   GL1 3709   2.117   5.280   5.373 -0.1327  0.3184  0.2198
  213POPC   G1P 3710   1.987   5.236   5.399 -0.0935  0.1627  0.1602
  213POPC   G1M 3711   2.077   5.250   5.242  0.4436 -0.1863  0.1370
  213POPC   GL2 3712   2.106   5.291   5.658 -0.0826 -0.1127  0.0498
  213POPC   G2P 3713   1.992   5.330   5.587  0.1412  0.5117  0.0070
  213POPC   G2M 3714   1.987   5.253   5.721 -0.0775 -0.0387  0.1042
  213POPC   C1A 3715   2.349   5.117   6.048  0.1147 -0.1520 -0.0292
  213POPC   C2A 3716   2.277   4.726   6.322  0.1010  0.0150 -0.2388
  213POPC   C3A 3717   2.363   4.352   6.456  0.1297 -0.1798 -0.0842
  213POPC   C4A 3718   2.560   4.080   6.431 -0.0347 -0.1177  0.1092
  213POPC   C1B 3719   1.867   4.881   5.600 -0.4058  0.1075 -0.2795
  213POPC   C2B 3720   1.891   4.627   5.924 -0.5856 -0.2488 -0.1000
  213POPC   D3B 3721   1.801   4.386   6.302  0.2717 -0.2166  0.1276
  213POPC   C4B 3722   1.380   4.236   6.299  0.0253  0.3664  0.0257
  213POPC   C5B 3723   0.974   4.138   6.498 -0.0461 -0.2797  0.1528
  214POPC   NC3 3724   7.538   2.622   5.751  0.0690  0.1735 -0.1090
  214POPC   PO4 3725   6.998   2.681   5.597 -0.0628  0.2214  0.0251
  214POPC   GL1 3726   6.900   2.886   5.968  0.0285  0.3412  0.1168
  214POPC   G1P 3727   6.935   2.751   5.954  0.0644  0.3886 -0.3156
  214POPC   G1M 3728   7.006   2.815   5.911 -0.0906  0.2133  0.0535
  214POPC   GL2 3729   7.118   3.031   6.167 -0.1920 -0.0076 -0.3026
  214POPC   G2P 3730   7.214   2.937   6.129  0.0805  0.1320  0.0202
  214POPC   G2M 3731   7.227   3.115   6.144 -0.2520 -0.0101 -0.6121
  214POPC   C1A 3732   7.111   2.691   6.515 -0.3476  0.0863  0.0716
  214POPC   C2A 3733   7.133   2.510   6.924 -0.0223  0.0734  0.1837
  214POPC   C3A 3734   7.092   2.241   7.210  0.4564 -0.1487 -0.1795
  214POPC   C4A 3735   6.866   2.248   7.533  0.0736 -0.0380 -0.1573
  214POPC   C1B 3736   6.604   2.754   6.313 -0.0143  0.1768 -0.2707
  214POPC   C2B 3737   6.589   2.461   6.533  0.1829  0.1222 -0.0628
  214POPC   D3B 3738   6.684   2.196   6.878  0.1486 -0.0698 -0.2060
  214POPC   C4B 3739   6.449   1.845   7.167 -0.2582  0.0245  0.0341
  214POPC   C5B 3740   6.403   1.490   7.425 -0.1084  0.0554 -0.0200
  215POPC   NC3 3741  12.022   9.729   4.872  0.2212 -0.0685  0.3016
  215POPC   PO4 3742   0.269  10.073   5.161 -0.0686 -0.0940  0.0837
  215POPC   GL1 3743   0.370  10.193   5.581  0.1670 -0.2370  0.0463
  215POPC   G1P 3744   0.367  10.120   5.700 -0.0832 -0.1553  0.0920
  215POPC   G1M 3745   0.420  10.256   5.696 -0.0807  0.1301 -0.0369
  215POPC   GL2 3746   0.124  10.382   5.727  0.1563  0.0301  0.0723
  215POPC   G2P 3747   0.123  10.378   5.587  0.3521 -0.2512  0.0749
  215POPC   G2M 3748   0.105  10.245   5.704 -0.1922  0.1684 -0.6087
  215POPC   C1A 3749  12.017  10.496   6.027 -0.1612 -0.0577  0.0633
  215POPC   C2A 3750  11.947  10.515   6.509  0.1669  0.4180  0.2041
  215POPC   C3A 3751  11.764  10.851   6.720 -0.4605  0.1346 -0.1424
  215POPC   C4A 3752  11.398  11.066   6.676  0.0361 -0.0982  0.0132
  215POPC   C1B 3753   0.526  10.140   5.955  0.0604 -0.4511 -0.0029
  215POPC   C2B 3754   0.446   9.973   6.264 -0.1378 -0.0262 -0.2582
  215POPC   D3B 3755   0.644   9.785   6.511  0.1525  0.2447  0.0613
  215POPC   C4B 3756   1.010   9.587   6.356 -0.4487  0.1374 -0.0605
  215POPC   C5B 3757   1.161   9.267   6.324  0.2547  0.2083 -0.2445
  216POPC   NC3 3758   4.198   9.378   5.426  0.0677  0.0356 -0.1911
  216POPC   PO4 3759   3.814   9.728   5.278  0.1451 -0.0869  0.0133
  216POPC   GL1 3760   3.885   9.699   5.695  0.0670  0.3838  0.3003
  216POPC   G1P 3761   3.972   9.696   5.804  0.2268 -0.3128  0.1807
  216POPC   G1M 3762   4.000   9.662   5.624 -0.1352  0.7336 -0.2431
  216POPC   GL2 3763   3.704   9.435   5.898  0.0112  0.2919  0.1624
  216POPC   G2P 3764   3.699   9.350   6.010 -0.3761  0.2923  0.1532
  216POPC   G2M 3765   3.807   9.353   5.945 -0.3109 -0.1934  0.0589
  216POPC   C1A 3766   3.194   9.444   5.870  0.1571  0.0086  0.2992
  216POPC   C2A 3767   2.927   9.437   6.174 -0.0860 -0.1339  0.2664
  216POPC   C3A 3768   2.964   9.588   6.561 -0.2070  0.0810 -0.4085
  216POPC   C4A 3769   3.197   9.819   6.802 -0.0526  0.0166  0.3379
  216POPC   C1B 3770   4.180   9.484   5.954 -0.1318  0.0962 -0.2016
  216POPC   C2B 3771   4.675   9.531   6.103  0.2076 -0.0254  0.1378
  216POPC   D3B 3772   4.887   9.217   6.387 -0.0677  0.1923 -0.1207
  216POPC   C4B 3773   4.776   8.798   6.539 -0.0665 -0.0334  0.5684
  216POPC   C5B 3774   5.011   8.544   6.714  0.1445 -0.0963  0.0990
  217POPC   NC3 3775   9.899   3.486   4.759 -0.2493  0.1620  0.1180
  217POPC   PO4 3776  10.387   3.314   5.050 -0.1156 -0.2586  0.2981
  217POPC   GL1 3777  10.395   3.267   5.492  0.5071  0.2085 -0.0357
  217POPC   G1P 3778  10.380   3.254   5.630  0.4002  0.0313 -0.0627
  217POPC   G1M 3779  10.331   3.392   5.492  0.5302  0.2313  0.5062
  217POPC   GL2 3780  10.329   3.004   5.684  0.1391 -0.1860  0.0288
  217POPC   G2P 3781  10.422   2.908   5.642  0.1949 -0.2231  0.2303
  217POPC   G2M 3782  10.348   2.930   5.802 -0.1494 -0.0469  0.1678
  217POPC   C1A 3783  10.758   2.999   5.816  0.1511 -0.2651 -0.4522
  217POPC   C2A 3784  11.085   2.512   6.021  0.0691  0.2593 -0.0686
  217POPC   C3A 3785  11.364   2.265   6.311  0.0844  0.0453 -0.1417
  217POPC   C4A 3786  11.386   1.909   6.496 -0.0850  0.0503 -0.1399
  217POPC   C1B 3787  10.602   3.455   5.954 -0.0643 -0.2234 -0.4260
  217POPC   C2B 3788  10.899   3.423   6.145 -0.1823  0.1832  0.2465
  217POPC   D3B 3789  11.176   3.256   6.596  0.2761  0.0914  0.1551
  217POPC   C4B 3790  11.013   3.280   7.056 -0.0009 -0.0125  0.0331
  217POPC   C5B 3791  10.887   2.953   7.321  0.0468  0.0714 -0.0338
  218POPC   NC3 3792   6.511   0.356   5.198 -0.1661  0.1357  0.0515
  218POPC   PO4 3793   6.839   0.740   5.308  0.0831 -0.1358  0.3650
  218POPC   GL1 3794   6.539   0.598   5.606  0.4633  0.2031  0.5587
  218POPC   G1P 3795   6.493   0.726   5.637 -0.1866  0.0416  0.3312
  218POPC   G1M 3796   6.633   0.663   5.526  0.2049  0.2703  0.3038
  218POPC   GL2 3797   6.186   0.706   5.504  0.0755  0.2178 -0.3122
  218POPC   G2P 3798   6.319   0.742   5.528  0.1188  0.0164 -0.2403
  218POPC   G2M 3799   6.256   0.590   5.538 -0.0983  0.1907 -0.0286
  218POPC   C1A 3800   5.778   0.635   5.758  0.0516 -0.0923  0.0200
  218POPC   C2A 3801   5.490   0.566   6.148  0.1825  0.1610 -0.1695
  218POPC   C3A 3802   5.281   0.258   6.348 -0.2724 -0.1003  0.0645
  218POPC   C4A 3803   5.140  11.974   6.545  0.1877 -0.3401  0.1875
  218POPC   C1B 3804   6.531   0.229   5.891  0.0946 -0.0145  0.2201
  218POPC   C2B 3805   6.590  11.853   5.842 -0.0718  0.0423 -0.1433
  218POPC   D3B 3806   6.656  11.464   5.525  0.0380  0.0786  0.0783
  218POPC   C4B 3807   6.697  11.085   5.739  0.0905  0.2983  0.1178
  218POPC   C5B 3808   6.837  10.824   5.457  0.0482 -0.4266 -0.0208
  219POPC   NC3 3809   4.640  12.129   5.455 -0.0161 -0.2382 -0.1959
  219POPC   PO4 3810   4.614  11.560   5.475  0.1990 -0.1079 -0.0597
  219POPC   GL1 3811   4.742  11.401   5.851  0.3715  0.0628 -0.3400
  219POPC   G1P 3812   4.667  11.399   5.733 -0.0585 -0.0664 -0.0744
  219POPC   G1M 3813   4.624  11.461   5.807  0.1041 -0.3106 -0.1611
  219POPC   GL2 3814   4.898  11.738   5.906  0.1588 -0.0671 -0.1981
  219POPC   G2P 3815   4.806  11.631   5.903  0.3646 -0.2849  0.4413
  219POPC   G2M 3816   4.758  11.747   5.904  0.1268 -0.4328 -0.0185
  219POPC   C1A 3817   5.093  11.521   6.321 -0.1454 -0.1884 -0.3802
  219POPC   C2A 3818   5.248  11.439   6.774 -0.3093  0.2753  0.2977
  219POPC   C3A 3819   5.668  11.449   6.936  0.1272 -0.2633 -0.1860
  219POPC   C4A 3820   5.958  11.213   7.023 -0.2845  0.1209  0.0479
  219POPC   C1B 3821   4.637  11.266   6.237  0.1426 -0.0887 -0.0697
  219POPC   C2B 3822   4.389  11.053   6.620  0.4276 -0.2344 -0.1452
  219POPC   D3B 3823   4.587  10.949   7.015  0.1347 -0.1522  0.2164
  219POPC   C4B 3824   4.455  10.935   7.480  0.2768  0.0799 -0.1161
  219POPC   C5B 3825   4.354  10.688   7.821 -0.1044  0.1320  0.1207
  220POPC   NC3 3826   2.341   5.808   5.243 -0.0083  0.1456 -0.1015
  220POPC   PO4 3827   2.919   5.712   5.341  0.1970  0.0059 -0.2425
  220POPC   GL1 3828   2.741   5.896   5.705 -0.1068 -0.1799 -0.1318
  220POPC   G1P 3829   2.647   5.805   5.754 -0.1390 -0.3528 -0.5028
  220POPC   G1M 3830   2.729   5.784   5.622  0.1190 -0.0031 -0.4107
  220POPC   GL2 3831   2.488   5.650   5.813 -0.1821  0.2472  0.1298
  220POPC   G2P 3832   2.599   5.620   5.732 -0.1466  0.0743  0.2406
  220POPC   G2M 3833   2.468   5.737   5.705 -0.6217  0.5841  0.4680
  220POPC   C1A 3834   2.232   5.641   6.200 -0.1120 -0.0164  0.2216
  220POPC   C2A 3835   1.897   5.698   6.422  0.2131  0.0357  0.1532
  220POPC   C3A 3836   1.590   5.581   6.781 -0.2646  0.0462  0.0589
  220POPC   C4A 3837   1.585   5.267   7.081 -0.1075  0.0409 -0.1332
  220POPC   C1B 3838   2.677   6.081   6.122 -0.4117  0.1548  0.3853
  220POPC   C2B 3839   2.421   6.195   6.394 -0.1816  0.0650 -0.3016
  220POPC   D3B 3840   2.337   6.582   6.647 -0.1241 -0.3624 -0.1018
  220POPC   C4B 3841   2.334   7.064   6.742 -0.0516 -0.1701 -0.0544
  220POPC   C5B 3842   2.417   7.397   6.993  0.0813 -0.1038  0.1938
  221POPC   NC3 3843   5.398   4.345   5.361  0.1836  0.2742 -0.1103
  221POPC   PO4 3844   4.899   4.771   5.160  0.0101  0.2062 -0.4170
  221POPC   GL1 3845   4.763   4.646   5.602 -0.1386  0.0799  0.4043
  221POPC   G1P 3846   4.652   4.720   5.559 -0.0344 -0.0913 -0.2017
  221POPC   G1M 3847   4.719   4.657   5.470  0.2407 -0.1632  0.2531
  221POPC   GL2 3848   4.409   4.532   5.598  0.5285 -0.8750  0.3300
  221POPC   G2P 3849   4.355   4.476   5.481 -0.1326  0.2317  0.0320
  221POPC   G2M 3850   4.460   4.650   5.543 -0.1774 -0.5374  0.3451
  221POPC   C1A 3851   4.206   4.634   5.972 -0.1936  0.0747  0.1271
  221POPC   C2A 3852   4.022   4.931   6.077 -0.1552 -0.2862 -0.1294
  221POPC   C3A 3853   4.069   5.284   6.362  0.0939 -0.2994  0.0575
  221POPC   C4A 3854   4.254   5.698   6.225 -0.1589  0.3858 -0.2213
  221POPC   C1B 3855   4.679   4.738   6.107 -0.0676 -0.0468  0.0085
  221POPC   C2B 3856   4.454   4.725   6.390 -0.1446 -0.3769 -0.0334
  221POPC   D3B 3857   4.060   4.656   6.571  0.0960 -0.3865  0.2657
  221POPC   C4B 3858   4.076   4.600   7.006 -0.0058 -0.1408 -0.0403
  221POPC   C5B 3859   4.068   4.548   7.480 -0.0525  0.1557  0.2684
  222POPC   NC3 3860   3.861   0.607   4.594 -0.0352 -0.2293 -0.3809
  222POPC   PO4 3861   4.005   0.996   5.064 -0.0066 -0.1841  0.2909
  222POPC   GL1 3862   4.173   1.224   5.474  0.2258  0.5885 -0.5134
  222POPC   G1P 3863   4.139   1.115   5.555 -0.2502  0.5420 -0.7571
  222POPC   G1M 3864   4.238   1.122   5.403 -0.4322 -0.4471  0.2285
  222POPC   GL2 3865   4.278   1.350   5.801 -0.0207  0.4574  0.3977
  222POPC   G2P 3866   4.386   1.261   5.812 -0.1887  0.1587 -0.1614
  222POPC   G2M 3867   4.395   1.427   5.798  0.4319 -0.1918  0.2845
  222POPC   C1A 3868   4.534   1.384   6.131 -0.0883  0.3977 -0.0648
  222POPC   C2A 3869   4.484   1.677   6.429 -0.2545 -0.0455  0.0262
  222POPC   C3A 3870   4.463   2.121   6.542 -0.1736 -0.3398 -0.5098
  222POPC   C4A 3871   4.353   2.523   6.633 -0.2539 -0.2869  0.0935
  222POPC   C1B 3872   3.856   1.021   5.740 -0.0969  0.0017 -0.0172
  222POPC   C2B 3873   3.921   0.808   6.241  0.0769  0.3563  0.1985
  222POPC   D3B 3874   4.028   0.671   6.676  0.1295 -0.3076  0.3824
  222POPC   C4B 3875   3.755   0.362   6.748 -0.1676  0.1825  0.2590
  222POPC   C5B 3876   3.739  12.059   6.892  0.0750  0.1511 -0.0827
  223POPC   NC3 3877   9.177  11.503   5.011 -0.2337 -0.1044 -0.0972
  223POPC   PO4 3878   9.056  12.005   4.877 -0.2494  0.0955  0.1505
  223POPC   GL1 3879   9.195  11.902   5.315 -0.5200 -0.4803  0.1438
  223POPC   G1P 3880   9.063  11.895   5.362 -0.5040 -0.0027  0.2773
  223POPC   G1M 3881   9.139  11.945   5.194 -0.4307 -0.7155  0.0148
  223POPC   GL2 3882   9.474  12.005   5.484  0.1459 -0.3842  0.1809
  223POPC   G2P 3883   9.417  12.132   5.504  0.1870 -0.3907  0.3496
  223POPC   G2M 3884   9.432  12.117   5.411 -0.1722 -0.4758  0.2154
  223POPC   C1A 3885   9.514   0.097   5.918 -0.2060 -0.1266  0.2777
  223POPC   C2A 3886   9.753   0.217   6.287  0.1026  0.0005  0.1927
  223POPC   C3A 3887  10.096   0.171   6.431  0.1654  0.1644 -0.2430
  223POPC   C4A 3888  10.336   0.376   6.718 -0.0169 -0.2456  0.1418
  223POPC   C1B 3889   9.153  11.680   5.716  0.2824  0.2118  0.0687
  223POPC   C2B 3890   9.110  11.918   6.079 -0.1552 -0.0604 -0.3902
  223POPC   D3B 3891   9.046   0.107   6.154  0.0640 -0.0650  0.3087
  223POPC   C4B 3892   9.325   0.170   6.520  0.1855  0.1908  0.1262
  223POPC   C5B 3893   9.327   0.631   6.843 -0.1789  0.0351 -0.0967
  224POPC   NC3 3894   8.181  10.735   4.127 -0.0288  0.0095 -0.0723
  224POPC   PO4 3895   8.409  10.371   4.557 -0.0895  0.4827  0.1448
  224POPC   GL1 3896   8.549  10.283   4.971  0.3381 -0.2500  0.0744
  224POPC   G1P 3897   8.479  10.185   5.041 -0.0465  0.1559  0.2858
  224POPC   G1M 3898   8.488  10.197   4.879  0.2293  0.2369 -0.3370
  224POPC   GL2 3899   8.464  10.445   5.248  0.0842 -0.8756 -1.0580
  224POPC   G2P 3900   8.541  10.545   5.187 -0.0442  0.0267  0.0777
  224POPC   G2M 3901   8.351  10.474   5.170 -0.3544  0.6797 -0.0839
  224POPC   C1A 3902   8.499  10.437   5.724  0.2839  0.0865  0.0887
  224POPC   C2A 3903   8.765  10.379   6.033  0.1220  0.3141  0.1779
  224POPC   C3A 3904   9.007  10.540   6.396  0.2913  0.2212  0.0805
  224POPC   C4A 3905   9.303  10.578   6.670  0.3789 -0.0715 -0.0577
  224POPC   C1B 3906   8.780   9.913   5.158 -0.0174  0.0035  0.2629
  224POPC   C2B 3907   9.105   9.608   5.381 -0.3710 -0.1218  0.1113
  224POPC   D3B 3908   9.380   9.207   5.549 -0.1785 -0.3736 -0.0105
  224POPC   C4B 3909   9.857   9.263   5.485  0.1642  0.0529  0.2275
  224POPC   C5B 3910   9.991   9.254   5.861  0.1769  0.2132 -0.1056
  225POPC   NC3 3911   9.533   9.764   4.608  0.3627  0.1485  0.2317
  225POPC   PO4 3912   9.979  10.083   4.816 -0.0828  0.0709  0.1679
  225POPC   GL1 3913  10.145  10.078   5.332  0.2582 -0.0383  0.1640
  225POPC   G1P 3914  10.073  10.193   5.366 -0.1218 -0.0791 -0.4349
  225POPC   G1M 3915  10.029  10.012   5.374  0.3156 -0.2765 -0.0404
  225POPC   GL2 3916   9.940   9.992   5.597 -0.0745 -0.4360 -0.5459
  225POPC   G2P 3917  10.017   9.899   5.668 -0.3785 -0.0828  0.3150
  225POPC   G2M 3918   9.877   9.937   5.709  0.1726  0.4412  0.0768
  225POPC   C1A 3919   9.942   9.750   6.033 -0.3016  0.0679  0.1482
  225POPC   C2A 3920  10.009   9.841   6.413 -0.1494  0.0214 -0.0531
  225POPC   C3A 3921  10.024   9.706   6.867 -0.0108  0.2450  0.2673
  225POPC   C4A 3922   9.949   9.559   7.209  0.2006 -0.0383 -0.0988
  225POPC   C1B 3923  10.498   9.986   5.606 -0.0200 -0.4186 -0.1450
  225POPC   C2B 3924  10.981   9.874   5.581 -0.0693 -0.0743 -0.0787
  225POPC   D3B 3925  11.375   9.715   5.558 -0.1930 -0.0835 -0.1132
  225POPC   C4B 3926  11.802   9.790   5.415  0.1817  0.1634  0.1379
  225POPC   C5B 3927   0.009   9.736   5.441 -0.0694  0.0671  0.0304
  226POPC   NC3 3928  10.034   9.105   4.832 -0.3020  0.1439  0.3112
  226POPC   PO4 3929  10.120   8.588   4.641  0.1564 -0.2123  0.0274
  226POPC   GL1 3930  10.027   8.605   5.092 -0.3648  0.4317  0.3729
  226POPC   G1P 3931   9.996   8.601   5.229 -0.1058 -0.1796  0.4278
  226POPC   G1M 3932  10.103   8.504   5.151 -0.4009  0.1285 -0.0746
  226POPC   GL2 3933  10.004   8.276   5.313  0.1165  0.1994 -0.0957
  226POPC   G2P 3934   9.869   8.268   5.277  0.0523  0.2056  0.1345
  226POPC   G2M 3935   9.992   8.144   5.269  0.3884  0.1108  0.0858
  226POPC   C1A 3936  10.211   8.244   5.700 -0.1124  0.1998  0.4704
  226POPC   C2A 3937  10.119   7.932   6.058  0.2640  0.1908  0.2193
  226POPC   C3A 3938  10.229   7.985   6.575 -0.0835  0.2845  0.0760
  226POPC   C4A 3939  10.530   7.673   6.797 -0.0950 -0.1106 -0.0807
  226POPC   C1B 3940   9.773   8.674   5.465 -0.0815  0.0352 -0.2612
  226POPC   C2B 3941   9.682   8.859   5.902  0.1091 -0.0242 -0.1319
  226POPC   D3B 3942   9.400   9.140   6.095 -0.0493  0.0549  0.0630
  226POPC   C4B 3943   9.492   9.502   5.929 -0.0805  0.3554  0.0770
  226POPC   C5B 3944   9.444   9.862   5.652 -0.0591  0.1097  0.3343
  227POPC   NC3 3945   9.169   0.508   5.148  0.6777  0.1192  0.2319
  227POPC   PO4 3946   8.956   1.059   4.980  0.0401 -0.0461  0.0015
  227POPC   GL1 3947   9.054   0.915   5.498  0.0565 -0.1106 -0.0371
  227POPC   G1P 3948   9.028   1.051   5.519  0.2775 -0.0926  0.1506
  227POPC   G1M 3949   9.051   0.945   5.362  0.0142  0.3795  0.0635
  227POPC   GL2 3950   8.765   0.929   5.678  0.2739 -0.3166  0.7743
  227POPC   G2P 3951   8.789   0.847   5.567  0.2954  0.1275  0.4375
  227POPC   G2M 3952   8.870   0.914   5.586 -0.0196 -0.4091  0.4432
  227POPC   C1A 3953   8.865   1.056   6.094 -0.0014  0.0367  0.0938
  227POPC   C2A 3954   8.873   1.347   6.487  0.0102  0.2830 -0.2972
  227POPC   C3A 3955   9.088   1.456   6.856  0.5866  0.2300 -0.0027
  227POPC   C4A 3956   9.097   1.799   7.266  0.0203 -0.4994 -0.0217
  227POPC   C1B 3957   9.260   1.142   5.811  0.1274 -0.0424  0.2052
  227POPC   C2B 3958   9.417   1.376   6.171 -0.0767  0.2968 -0.0812
  227POPC   D3B 3959   9.638   1.605   6.541  0.3245 -0.1307 -0.2277
  227POPC   C4B 3960   9.817   1.442   6.823 -0.1857 -0.2554 -0.1030
  227POPC   C5B 3961   9.911   1.331   7.258  0.1634  0.0874  0.0767
  228POPC   NC3 3962   7.498   5.210   5.173 -0.3535 -0.4471  0.0084
  228POPC   PO4 3963   7.643   4.615   5.119 -0.0057  0.1348  0.2365
  228POPC   GL1 3964   7.540   4.800   5.497  0.1533  0.1843  0.0515
  228POPC   G1P 3965   7.555   4.802   5.636  0.2579  0.1141  0.0415
  228POPC   G1M 3966   7.538   4.934   5.455 -0.4553  0.2608  0.2739
  228POPC   GL2 3967   7.428   5.080   5.650  0.2000  0.7178 -0.1478
  228POPC   G2P 3968   7.309   5.011   5.625  0.3939  0.4454 -0.3509
  228POPC   G2M 3969   7.411   5.132   5.522 -0.4223  0.2552 -0.2763
  228POPC   C1A 3970   7.645   5.389   6.004 -0.0236  0.0314  0.3833
  228POPC   C2A 3971   8.002   5.547   6.143 -0.0264  0.1787  0.0148
  228POPC   C3A 3972   8.170   5.974   6.256 -0.0914 -0.2730 -0.3231
  228POPC   C4A 3973   8.436   6.352   6.392 -0.4102  0.0288 -0.3343
  228POPC   C1B 3974   7.961   4.850   5.853 -0.4507 -0.0651  0.3837
  228POPC   C2B 3975   8.036   5.032   6.286 -0.0485 -0.2206 -0.1031
  228POPC   D3B 3976   7.800   5.177   6.675  0.1031  0.3360  0.3519
  228POPC   C4B 3977   7.680   5.057   7.064  0.1874  0.0636  0.0697
  228POPC   C5B 3978   7.359   5.087   7.385  0.0282 -0.1000 -0.2101
  229POPC   NC3 3979   3.027   0.997   5.108  0.0343  0.1484  0.0401
  229POPC   PO4 3980   2.966   0.500   5.037 -0.7563  0.0371 -0.2051
  229POPC   GL1 3981   3.036   0.625   5.428 -0.2195 -0.1667 -0.3742
  229POPC   G1P 3982   2.992   0.753   5.463 -0.4188 -0.1844 -0.5481
  229POPC   G1M 3983   3.001   0.708   5.321 -0.2940  0.4352  0.0887
  229POPC   GL2 3984   3.391   0.742   5.454 -0.0114  0.2156  0.1276
  229POPC   G2P 3985   3.508   0.713   5.381 -0.1639 -0.2459  0.0500
  229POPC   G2M 3986   3.367   0.827   5.346 -0.0776 -0.2111 -0.2069
  229POPC   C1A 3987   3.468   0.454   5.766 -0.0986 -0.1401 -0.0307
  229POPC   C2A 3988   3.587   0.418   6.200 -0.0892 -0.0307  0.0782
  229POPC   C3A 3989   3.725   0.016   6.402  0.1009 -0.3212 -0.1389
  229POPC   C4A 3990   3.656  11.707   6.562  0.1125  0.2921 -0.1245
  229POPC   C1B 3991   3.138   0.832   5.887 -0.1159 -0.0661 -0.1283
  229POPC   C2B 3992   3.050   0.683   6.230  0.0242  0.0113  0.0172
  229POPC   D3B 3993   2.848   0.857   6.484 -0.2185 -0.1458  0.0484
  229POPC   C4B 3994   3.035   1.151   6.761 -0.0036 -0.0102  0.2946
  229POPC   C5B 3995   3.402   1.288   6.913 -0.1887  0.1426 -0.1037
  230POPC   NC3 3996   0.224   4.516   4.588  0.0668 -0.1833  0.0262
  230POPC   PO4 3997  11.842   4.721   4.917 -0.0043  0.1990 -0.2176
  230POPC   GL1 3998  11.809   4.628   5.322 -0.2127  0.0005 -0.2932
  230POPC   G1P 3999  11.759   4.543   5.222 -0.2122  0.0013 -0.2942
  230POPC   G1M 4000  11.872   4.545   5.229  0.0866  0.2206 -0.2934
  230POPC   GL2 4001  11.666   4.935   5.530 -0.0093  0.0844 -0.1322
  230POPC   G2P 4002  11.728   4.810   5.542 -0.0877  0.0453 -0.1333
  230POPC   G2M 4003  11.634   4.831   5.617 -0.2915  0.2089 -0.0825
  230POPC   C1A 4004  12.044   5.127   5.691 -0.3558 -0.0284 -0.1823
  230POPC   C2A 4005   0.020   5.422   5.932 -0.0208  0.0093  0.1135
  230POPC   C3A 4006   0.123   5.624   6.349  0.0488 -0.2128  0.1727
  230POPC   C4A 4007   0.308   5.687   6.834 -0.1906  0.1299  0.0841
  230POPC   C1B 4008  11.631   4.317   5.601 -0.2235  0.1562  0.1273
  230POPC   C2B 4009  11.713   3.795   5.787  0.0722  0.0879  0.0771
  230POPC   D3B 4010  11.503   3.422   5.570 -0.0563  0.1229 -0.0570
  230POPC   C4B 4011  11.594   3.125   5.740 -0.1875 -0.1398 -0.1027
  230POPC   C5B 4012  11.936   2.869   5.720  0.3288  0.0574 -0.1330
  231POPC   NC3 4013   0.145   3.044   4.832 -0.0713  0.1062  0.0111
  231POPC   PO4 4014   0.303   3.617   4.665 -0.1872  0.1411 -0.1544
  231POPC   GL1 4015   0.033   3.943   4.985  0.0403 -0.1525 -0.3751
  231POPC   G1P 4016   0.081   3.921   5.114 -0.6300 -0.3993 -0.1464
  231POPC   G1M 4017   0.142   3.930   4.898  0.1959 -0.0525 -0.1975
  231POPC   GL2 4018  11.895   3.794   5.116  0.2641 -0.4014  0.4236
  231POPC   G2P 4019  11.766   3.792   5.170  0.0165  0.4583 -0.0396
  231POPC   G2M 4020  11.869   3.708   5.009  0.2426 -0.0465  0.1325
  231POPC   C1A 4021  12.093   3.536   5.489 -0.4952  0.0680 -0.2032
  231POPC   C2A 4022  11.989   3.437   5.930 -0.2770  0.0445  0.0757
  231POPC   C3A 4023  11.841   3.126   6.199  0.1911 -0.0133  0.1259
  231POPC   C4A 4024  11.630   3.179   6.622 -0.0210 -0.0620 -0.0796
  231POPC   C1B 4025  12.111   4.054   5.495  0.2272  0.1502 -0.2102
  231POPC   C2B 4026   0.059   3.999   5.991 -0.0391 -0.2482  0.6629
  231POPC   D3B 4027   0.012   4.067   6.443 -0.1012 -0.1529  0.0178
  231POPC   C4B 4028  12.072   4.409   6.653 -0.1721  0.1753  0.0354
  231POPC   C5B 4029  11.931   4.758   6.726 -0.1167  0.0007  0.0152
  232POPC   NC3 4030   3.456   9.493   5.450  0.1222  0.1669  0.3671
  232POPC   PO4 4031   2.989   9.863   5.568 -0.0419 -0.0952 -0.0555
  232POPC   GL1 4032   2.666   9.646   5.864 -0.2606 -0.0946  0.2333
  232POPC   G1P 4033   2.678   9.693   5.996 -0.0961  0.3660  0.0665
  232POPC   G1M 4034   2.720   9.776   5.865 -0.0802 -0.1655  0.0354
  232POPC   GL2 4035   2.346   9.513   5.907 -0.5629  0.4253 -0.1296
  232POPC   G2P 4036   2.227   9.439   5.904 -0.3588  0.0516  0.2992
  232POPC   G2M 4037   2.356   9.416   5.806  0.0008  0.4035 -0.0727
  232POPC   C1A 4038   1.877   9.452   6.005  0.1097  0.1633 -0.4438
  232POPC   C2A 4039   1.708   9.061   6.129 -0.0667  0.0702 -0.0021
  232POPC   C3A 4040   1.784   8.565   6.080 -0.1297  0.0663 -0.1578
  232POPC   C4A 4041   1.912   8.166   6.077  0.0432 -0.1581 -0.0586
  232POPC   C1B 4042   2.595   9.832   6.320  0.1883 -0.0897 -0.2083
  232POPC   C2B 4043   2.523  10.227   6.669  0.1120  0.0313 -0.0373
  232POPC   D3B 4044   2.804  10.364   6.977 -0.2235  0.2457  0.1832
  232POPC   C4B 4045   3.192  10.650   6.895  0.0793 -0.0520  0.0769
  232POPC   C5B 4046   3.286  11.029   7.178 -0.0607  0.1142 -0.0739
  233POPC   NC3 4047   0.315   1.342   4.465  0.1955  0.2715 -0.0744
  233POPC   PO4 4048   0.143   1.214   5.009 -0.2952 -0.2438 -0.1226
  233POPC   GL1 4049   0.201   1.421   5.438  0.0506 -0.1432  0.2562
  233POPC   G1P 4050   0.068   1.381   5.454 -0.1356  0.1596 -0.3802
  233POPC   G1M 4051   0.184   1.367   5.310 -0.3961  0.1320  0.1917
  233POPC   GL2 4052   0.437   1.401   5.607 -0.4016  0.1368  0.8196
  233POPC   G2P 4053   0.572   1.399   5.571 -0.5721 -0.6107  0.0523
  233POPC   G2M 4054   0.428   1.537   5.573  0.2661  0.0279  0.0311
  233POPC   C1A 4055   0.332   1.396   6.093 -0.1257 -0.2544  0.2428
  233POPC   C2A 4056   0.084   1.475   6.510 -0.0952  0.2048 -0.2676
  233POPC   C3A 4057   0.096   1.887   6.696  0.0104 -0.1166 -0.1241
  233POPC   C4A 4058  12.069   2.274   6.691  0.3077  0.0130  0.0706
  233POPC   C1B 4059   0.053   1.703   5.849 -0.0828  0.0429  0.1492
  233POPC   C2B 4060   0.144   1.903   6.194 -0.1746  0.0927  0.2254
  233POPC   D3B 4061   0.488   2.136   6.480 -0.2676 -0.2348  0.1696
  233POPC   C4B 4062   0.483   2.154   6.802 -0.0805 -0.1999 -0.1326
  233POPC   C5B 4063   0.213   2.117   7.092  0.0723  0.3063 -0.2280
  234POPC   NC3 4064   6.269   4.307   5.064  0.1002  0.0217 -0.2915
  234POPC   PO4 4065   5.715   4.029   5.236 -0.1228  0.0542  0.0542
  234POPC   GL1 4066   5.526   3.842   5.642  0.6081 -0.2932  0.1002
  234POPC   G1P 4067   5.618   3.893   5.735  0.3481  0.0864  0.1616
  234POPC   G1M 4068   5.553   3.935   5.542  0.0589 -0.2467 -0.0200
  234POPC   GL2 4069   5.774   4.061   5.819 -0.2934 -0.8034  0.3073
  234POPC   G2P 4070   5.733   4.192   5.844 -0.0444 -0.5697 -0.3847
  234POPC   G2M 4071   5.688   4.126   5.730  0.2463 -0.0088  0.3161
  234POPC   C1A 4072   5.646   4.306   6.300  0.1846 -0.5138 -0.0659
  234POPC   C2A 4073   5.845   4.596   6.596 -0.2666 -0.0176  0.1549
  234POPC   C3A 4074   6.155   4.747   6.856  0.0289 -0.0327  0.2860
  234POPC   C4A 4075   6.518   4.572   6.979  0.1948 -0.3725  0.2630
  234POPC   C1B 4076   5.230   3.735   6.041  0.1460 -0.0644 -0.0934
  234POPC   C2B 4077   4.794   3.788   6.291 -0.0389  0.0072  0.1027
  234POPC   D3B 4078   4.550   3.546   6.575 -0.2601  0.2678  0.0934
  234POPC   C4B 4079   4.488   3.419   6.955 -0.4247  0.1641 -0.2718
  234POPC   C5B 4080   4.028   3.258   7.008 -0.0844 -0.1354 -0.1276
  235POPC   NC3 4081   9.257   2.604   5.516 -0.3026 -0.0009 -0.0048
  235POPC   PO4 4082   8.729   2.802   5.560  0.0103  0.0054 -0.1579
  235POPC   GL1 4083   8.996   2.883   5.820  0.4188 -0.3264  0.5231
  235POPC   G1P 4084   8.893   2.911   5.910  0.0202  0.0741 -0.0198
  235POPC   G1M 4085   8.875   2.823   5.782  0.1373  0.3695  0.2384
  235POPC   GL2 4086   9.088   3.224   5.898  0.3188 -0.4296  0.0771
  235POPC   G2P 4087   9.029   3.109   5.953 -0.5844 -0.0205  0.0565
  235POPC   G2M 4088   9.145   3.266   6.019  0.2860 -0.1814  0.0086
  235POPC   C1A 4089   9.172   3.513   6.165 -0.2808 -0.0825 -0.0298
  235POPC   C2A 4090   9.147   3.923   6.480 -0.0601 -0.0167 -0.2922
  235POPC   C3A 4091   9.240   4.253   6.628  0.2307 -0.0413 -0.0756
  235POPC   C4A 4092   9.494   4.590   6.617 -0.0307  0.1210 -0.2968
  235POPC   C1B 4093   8.992   2.881   6.332 -0.3610 -0.2627  0.1474
  235POPC   C2B 4094   9.396   2.938   6.502  0.0007  0.1841  0.1959
  235POPC   D3B 4095   9.537   2.752   6.902  0.1464  0.2060  0.1636
  235POPC   C4B 4096   9.515   2.845   7.266  0.2897 -0.3937 -0.0760
  235POPC   C5B 4097   9.548   2.836   7.751 -0.0298  0.3312 -0.2491
  236POPC   NC3 4098   0.051  10.997   5.254 -0.0408 -0.0979 -0.0702
  236POPC   PO4 4099   0.611  10.830   5.065 -0.0702 -0.0212 -0.1943
  236POPC   GL1 4100   0.468  10.804   5.513  0.1814 -0.1019 -0.4181
  236POPC   G1P 4101   0.473  10.944   5.520  0.2161 -0.1175 -0.0402
  236POPC   G1M 4102   0.543  10.862   5.409  0.1638  0.4321 -0.1488
  236POPC   GL2 4103   0.180  10.880   5.789 -0.0410 -0.0478 -0.1386
  236POPC   G2P 4104   0.275  10.785   5.749 -0.0188  0.0090 -0.2226
  236POPC   G2M 4105   0.246  10.971   5.706 -0.4244  0.1320 -0.2531
  236POPC   C1A 4106   0.227  10.764   6.176 -0.1046  0.0065 -0.2264
  236POPC   C2A 4107   0.275  10.383   6.390  0.3090 -0.1868  0.4313
  236POPC   C3A 4108   0.174  10.101   6.671  0.0952 -0.1737  0.1192
  236POPC   C4A 4109  12.068   9.931   6.932 -0.0030  0.1354 -0.1864
  236POPC   C1B 4110   0.726  10.881   5.783  0.1021 -0.3442 -0.1727
  236POPC   C2B 4111   1.050  10.943   6.065 -0.0803 -0.1083  0.3257
  236POPC   D3B 4112   1.129  10.880   6.392  0.0043 -0.0333 -0.0203
  236POPC   C4B 4113   0.884  10.630   6.648  0.3246 -0.0584 -0.1520
  236POPC   C5B 4114   0.664  10.354   6.678 -0.1271 -0.1270  0.3598
  237POPC   NC3 4115   9.969   2.560   4.882  0.0057  0.3219 -0.2045
  237POPC   PO4 4116   9.909   3.138   5.091  0.2222  0.1720 -0.0966
  237POPC   GL1 4117   9.896   3.096   5.507 -0.0482  0.2149  0.1532
  237POPC   G1P 4118   9.799   3.197   5.508 -0.4838 -0.1804 -0.1649
  237POPC   G1M 4119   9.809   3.126   5.401  0.2071 -0.1478 -0.1704
  237POPC   GL2 4120   9.753   2.786   5.707 -0.5860 -0.1516  0.5040
  237POPC   G2P 4121   9.797   2.673   5.636  0.0733  0.5018 -0.2189
  237POPC   G2M 4122   9.695   2.827   5.587  0.1708  0.0884  0.1928
  237POPC   C1A 4123   9.550   2.562   6.068  0.1347 -0.2167  0.0172
  237POPC   C2A 4124   9.427   2.451   6.426  0.1097 -0.1705  0.4088
  237POPC   C3A 4125   9.439   2.129   6.713 -0.3151 -0.0678  0.0474
  237POPC   C4A 4126   9.509   1.885   6.965  0.3244 -0.1023  0.1941
  237POPC   C1B 4127   9.603   3.268   5.859  0.0256  0.1831  0.1424
  237POPC   C2B 4128   9.780   2.998   6.134  0.0116  0.0234  0.0618
  237POPC   D3B 4129   9.881   2.749   6.512  0.1382  0.0145 -0.1563
  237POPC   C4B 4130  10.034   2.975   6.879  0.0539  0.1362 -0.0495
  237POPC   C5B 4131   9.972   3.161   7.245 -0.0027  0.1936  0.2281
  238POPC   NC3 4132   4.051  10.164   5.374  0.0199 -0.1914 -0.0120
  238POPC   PO4 4133   3.523  10.289   5.106 -0.5503 -0.5026  0.0000
  238POPC   GL1 4134   3.625  10.345   5.550 -0.0059  0.3224 -0.3002
  238POPC   G1P 4135   3.655  10.283   5.671  0.0986  0.5561 -0.2034
  238POPC   G1M 4136   3.754  10.295   5.531  0.1368  0.4675  0.2182
  238POPC   GL2 4137   3.461  10.488   5.699  0.0640 -0.4964  0.0495
  238POPC   G2P 4138   3.576  10.481   5.779  0.0343  0.3730  0.2233
  238POPC   G2M 4139   3.566  10.580   5.683 -0.1045 -0.3348 -0.1613
  238POPC   C1A 4140   3.706  10.602   6.094  0.1168 -0.2758  0.2171
  238POPC   C2A 4141   4.025  10.523   6.491  0.1265  0.2604 -0.0260
  238POPC   C3A 4142   4.180  10.255   6.656  0.1082  0.1169  0.2249
  238POPC   C4A 4143   4.020  10.121   7.050  0.0758  0.0629  0.4804
  238POPC   C1B 4144   3.773  10.140   5.949  0.2681 -0.0798 -0.0678
  238POPC   C2B 4145   3.752  10.086   6.368 -0.0527 -0.0441 -0.1920
  238POPC   D3B 4146   3.616  10.241   6.743  0.1165  0.0905 -0.0064
  238POPC   C4B 4147   3.346  10.227   7.060 -0.0518  0.2038 -0.1798
  238POPC   C5B 4148   2.993   9.949   7.247 -0.0415  0.0888  0.0892
  239POPC   NC3 4149   4.300   7.664   4.390  0.0633  0.0434 -0.3166
  239POPC   PO4 4150   4.166   7.521   4.918  0.1175 -0.0185  0.0693
  239POPC   GL1 4151   4.467   7.367   5.290  0.3381 -0.0158 -0.1766
  239POPC   G1P 4152   4.342   7.334   5.344  0.3311  0.3196  0.0243
  239POPC   G1M 4153   4.363   7.415   5.209  0.1171  0.1571  0.1996
  239POPC   GL2 4154   4.522   7.679   5.543 -0.1371  0.0251 -0.3534
  239POPC   G2P 4155   4.404   7.739   5.589 -0.0723  0.1723 -0.3759
  239POPC   G2M 4156   4.400   7.630   5.494 -0.1885  0.0303 -0.2328
  239POPC   C1A 4157   4.566   7.335   5.807 -0.3397 -0.0526 -0.2112
  239POPC   C2A 4158   4.772   7.168   6.224 -0.2577 -0.0891 -0.0217
  239POPC   C3A 4159   5.036   7.464   6.383  0.1227  0.0486  0.1505
  239POPC   C4A 4160   4.924   7.620   6.761  0.2528  0.1862 -0.1206
  239POPC   C1B 4161   4.907   7.403   5.428  0.2254  0.2134  0.0819
  239POPC   C2B 4162   5.095   7.316   5.780  0.2965  0.1317 -0.0212
  239POPC   D3B 4163   5.345   7.557   5.982 -0.0038  0.0045 -0.0688
  239POPC   C4B 4164   5.712   7.625   5.958 -0.0001 -0.2164 -0.1143
  239POPC   C5B 4165   6.151   7.680   5.986  0.1145 -0.3535  0.2394
  240POPC   NC3 4166   5.418   5.685   4.947  0.1485  0.2428  0.0499
  240POPC   PO4 4167   4.865   6.021   4.961  0.2661 -0.3251  0.0636
  240POPC   GL1 4168   4.957   6.058   5.388 -0.2184 -0.1131  0.1150
  240POPC   G1P 4169   4.964   6.161   5.482 -0.2610  0.0908 -0.0992
  240POPC   G1M 4170   4.863   6.149   5.339  0.5017  0.4249 -0.3778
  240POPC   GL2 4171   5.108   6.365   5.541  0.1473  0.3148  0.0294
  240POPC   G2P 4172   5.077   6.490   5.596 -0.0235  0.1603  0.2930
  240POPC   G2M 4173   5.049   6.362   5.414 -0.0558  0.1722  0.1264
  240POPC   C1A 4174   5.274   6.458   5.867 -0.2946 -0.0145  0.1119
  240POPC   C2A 4175   5.516   6.551   6.208  0.0745 -0.0906  0.1882
  240POPC   C3A 4176   5.849   6.687   6.452 -0.0296  0.2345 -0.1738
  240POPC   C4A 4177   5.927   6.574   6.864 -0.1384  0.1920  0.3110
  240POPC   C1B 4178   5.244   5.942   5.668  0.0367 -0.4842 -0.3468
  240POPC   C2B 4179   5.485   5.616   5.987  0.0228 -0.0956  0.0197
  240POPC   D3B 4180   5.495   5.531   6.448  0.3064  0.0431 -0.0922
  240POPC   C4B 4181   5.418   5.731   6.749 -0.0843 -0.2056 -0.1004
  240POPC   C5B 4182   5.376   5.753   7.256 -0.3375 -0.0019 -0.0581
  241POPC   NC3 4183   2.234   2.724   4.648 -0.3796  0.3950 -0.0823
  241POPC   PO4 4184   2.639   2.510   4.937  0.2539  0.1501 -0.0750
  241POPC   GL1 4185   2.685   2.559   5.406  0.5491  0.3238 -0.1410
  241POPC   G1P 4186   2.637   2.603   5.530 -0.2592 -0.2197 -0.2210
  241POPC   G1M 4187   2.739   2.474   5.504  0.0422 -0.0915 -0.1963
  241POPC   GL2 4188   2.951   2.616   5.535  0.4196 -0.3339  0.2238
  241POPC   G2P 4189   2.836   2.573   5.600 -0.2658  0.7689 -0.1142
  241POPC   G2M 4190   2.983   2.571   5.663  0.6350 -0.2913  0.1878
  241POPC   C1A 4191   3.080   2.339   5.955 -0.2074 -0.1960  0.0404
  241POPC   C2A 4192   3.028   1.967   6.091  0.0901  0.1911  0.1689
  241POPC   C3A 4193   3.242   1.666   5.977 -0.0701 -0.1755 -0.4234
  241POPC   C4A 4194   3.467   1.281   5.885  0.1171 -0.1214 -0.0696
  241POPC   C1B 4195   2.533   2.477   5.881 -0.0680 -0.1653 -0.1729
  241POPC   C2B 4196   2.609   2.202   6.193  0.0054  0.3450  0.1576
  241POPC   D3B 4197   2.749   1.875   6.454  0.1137  0.2717 -0.1176
  241POPC   C4B 4198   2.743   1.445   6.418  0.2418  0.0401  0.0444
  241POPC   C5B 4199   2.554   1.137   6.168 -0.0891  0.1165 -0.0025
  242POPC   NC3 4200  10.740   1.113   4.972  0.0542 -0.2869 -0.1328
  242POPC   PO4 4201  10.600   1.626   5.070 -0.1725 -0.3832  0.2405
  242POPC   GL1 4202  10.560   1.785   5.481 -0.6213 -0.0438 -0.1782
  242POPC   G1P 4203  10.489   1.771   5.601 -0.2945  0.0550  0.0309
  242POPC   G1M 4204  10.486   1.672   5.442 -0.0698 -0.5306  0.0996
  242POPC   GL2 4205  10.448   2.084   5.626 -0.1482 -0.1827  0.0235
  242POPC   G2P 4206  10.348   2.126   5.715 -0.3039 -0.3767 -0.0545
  242POPC   G2M 4207  10.364   1.989   5.567 -0.4524  0.0926 -0.0014
  242POPC   C1A 4208  10.422   1.970   6.039 -0.1729 -0.3281 -0.2823
  242POPC   C2A 4209  10.416   2.144   6.459  0.0635  0.0204 -0.0059
  242POPC   C3A 4210  10.542   1.980   6.811  0.2796  0.2034  0.1054
  242POPC   C4A 4211  10.709   1.878   7.211 -0.0315  0.1401 -0.1842
  242POPC   C1B 4212  10.314   1.517   5.807  0.1123  0.0383 -0.0428
  242POPC   C2B 4213  10.145   1.189   5.782  0.1040 -0.2648 -0.0234
  242POPC   D3B 4214  10.076   0.934   6.030  0.0594  0.1773  0.4793
  242POPC   C4B 4215  10.046   0.732   6.475 -0.4373  0.1017  0.0927
  242POPC   C5B 4216   9.792   0.515   6.753  0.1733 -0.1457 -0.0671
  243POPC   NC3 4217   5.314  10.621   4.963 -0.0068  0.0137  0.0084
  243POPC   PO4 4218   5.002  11.077   5.198 -0.0524 -0.2127  0.1180
  243POPC   GL1 4219   5.034  10.983   5.655 -0.4993 -0.3356 -0.4758
  243POPC   G1P 4220   5.035  11.065   5.769 -0.0756  0.1181 -0.7840
  243POPC   G1M 4221   5.039  11.121   5.635 -0.2433 -0.3834 -0.7753
  243POPC   GL2 4222   5.204  11.259   5.855  0.1649 -0.1151  0.5118
  243POPC   G2P 4223   5.339  11.247   5.819  0.0364 -0.2925  0.0486
  243POPC   G2M 4224   5.274  11.380   5.867  0.2445 -0.1042  0.0544
  243POPC   C1A 4225   5.594  11.474   5.948  0.0520 -0.2070 -0.0583
  243POPC   C2A 4226   6.055  11.543   6.005  0.0351  0.1659 -0.0668
  243POPC   C3A 4227   6.488  11.381   6.170  0.2808  0.0887 -0.0768
  243POPC   C4A 4228   6.878  11.256   6.389 -0.0202 -0.0315  0.2093
  243POPC   C1B 4229   4.706  10.851   5.979 -0.1773 -0.1373  0.0429
  243POPC   C2B 4230   4.719  10.683   6.398 -0.1629  0.1350 -0.0756
  243POPC   D3B 4231   4.797  10.600   6.758 -0.1366  0.2460  0.2033
  243POPC   C4B 4232   4.463  10.426   7.028 -0.3001  0.2561  0.1270
  243POPC   C5B 4233   4.266  10.350   7.416 -0.2900  0.0867  0.0503
  244POPC   NC3 4234   8.842   8.352   5.299  0.2038  0.4026  0.1633
  244POPC   PO4 4235   9.236   8.737   5.115  0.0349  0.1047 -0.1918
  244POPC   GL1 4236   9.058   8.725   5.619  0.2233 -0.0140 -0.0297
  244POPC   G1P 4237   8.928   8.699   5.664  0.3835  0.1704  0.5880
  244POPC   G1M 4238   8.985   8.799   5.526 -0.1341 -0.0047  0.2466
  244POPC   GL2 4239   8.671   8.709   5.699  0.0940  0.0006 -0.0958
  244POPC   G2P 4240   8.693   8.787   5.585 -0.2074 -0.1917 -0.2899
  244POPC   G2M 4241   8.790   8.770   5.739  0.3007 -0.3151 -0.2143
  244POPC   C1A 4242   8.549   9.115   5.590 -0.0924 -0.1739  0.1352
  244POPC   C2A 4243   8.650   9.501   5.499  0.0242 -0.0755  0.3126
  244POPC   C3A 4244   8.373   9.852   5.516 -0.1087  0.1446  0.0505
  244POPC   C4A 4245   8.108  10.098   5.819  0.2530  0.0239 -0.1239
  244POPC   C1B 4246   8.976   9.082   5.843 -0.0510 -0.0477  0.1010
  244POPC   C2B 4247   8.576   9.233   6.128  0.2463 -0.1009 -0.2575
  244POPC   D3B 4248   8.199   9.121   6.314 -0.0873 -0.0292  0.2732
  244POPC   C4B 4249   8.190   8.912   6.640 -0.0280  0.5204 -0.1610
  244POPC   C5B 4250   8.183   8.875   7.064 -0.1134  0.3011 -0.3622
  245POPC   NC3 4251   9.276   1.897   4.774 -0.0059  0.2266  0.0742
  245POPC   PO4 4252   9.217   2.299   5.180 -0.2158  0.0681  0.0727
  245POPC   GL1 4253   8.970   2.138   5.602  0.1713  0.0099 -0.3777
  245POPC   G1P 4254   8.840   2.095   5.630  0.2434 -0.2717 -0.4570
  245POPC   G1M 4255   8.928   2.257   5.542  0.0347  0.0841 -0.1402
  245POPC   GL2 4256   8.719   2.315   5.642 -0.3858 -0.1270  0.2005
  245POPC   G2P 4257   8.727   2.454   5.652  0.0270 -0.1559  0.3981
  245POPC   G2M 4258   8.818   2.414   5.631  0.0556 -0.5954 -0.5696
  245POPC   C1A 4259   8.688   2.551   5.997 -0.0092 -0.1238 -0.0035
  245POPC   C2A 4260   8.320   2.492   6.130  0.3204  0.1528 -0.3367
  245POPC   C3A 4261   7.846   2.264   6.089  0.3421  0.0676  0.0783
  245POPC   C4A 4262   7.450   2.193   6.172  0.0972 -0.1609 -0.1094
  245POPC   C1B 4263   9.134   2.244   5.997  0.0658  0.0236 -0.1187
  245POPC   C2B 4264   8.913   2.328   6.380 -0.3174 -0.0378 -0.2448
  245POPC   D3B 4265   9.071   2.564   6.781 -0.1458 -0.2534 -0.0686
  245POPC   C4B 4266   9.060   3.018   6.810 -0.0669 -0.0222  0.0913
  245POPC   C5B 4267   9.003   3.446   6.638 -0.1614  0.3383  0.3133
  246POPC   NC3 4268   8.278  11.384   4.475  0.0678  0.3271 -0.2910
  246POPC   PO4 4269   8.374  11.144   4.927  0.0916  0.0840  0.0223
  246POPC   GL1 4270   8.733  11.101   5.313  0.2535 -0.0524 -0.0139
  246POPC   G1P 4271   8.871  11.106   5.335  0.2398  0.7492  0.0352
  246POPC   G1M 4272   8.764  11.013   5.417 -0.7157  0.1669  0.5251
  246POPC   GL2 4273   8.888  11.348   5.387 -0.2179 -0.3383 -0.2182
  246POPC   G2P 4274   8.851  11.482   5.397  0.1952 -0.1787 -0.6555
  246POPC   G2M 4275   8.931  11.427   5.280  0.4670 -0.4461 -0.0425
  246POPC   C1A 4276   8.721  11.456   5.782 -0.0006  0.3694  0.1808
  246POPC   C2A 4277   8.668  11.814   5.908  0.0941  0.2389 -0.3790
  246POPC   C3A 4278   8.573  11.911   6.344 -0.0938 -0.1778  0.1155
  246POPC   C4A 4279   8.210  11.948   6.668  0.2279 -0.0335  0.1295
  246POPC   C1B 4280   8.787  10.855   5.683 -0.1572 -0.0237 -0.4533
  246POPC   C2B 4281   8.691  10.859   6.100 -0.1621 -0.2171  0.0950
  246POPC   D3B 4282   8.736  11.001   6.525 -0.3131  0.1300 -0.0272
  246POPC   C4B 4283   8.662  10.626   6.799 -0.2659 -0.3581  0.0348
  246POPC   C5B 4284   8.421  10.420   7.164  0.0382 -0.2495 -0.1868
  247POPC   NC3 4285   8.954   5.061   5.195 -0.3642  0.0579 -0.1129
  247POPC   PO4 4286   9.252   4.538   5.261  0.0415 -0.2387  0.1561
  247POPC   GL1 4287   9.434   4.510   5.744 -0.0963  0.2748 -0.1070
  247POPC   G1P 4288   9.367   4.458   5.856  0.5404 -0.6049 -0.0815
  247POPC   G1M 4289   9.308   4.462   5.707 -0.0693  0.4341 -0.4183
  247POPC   GL2 4290   9.805   4.501   5.849  0.0520 -0.1237  0.2951
  247POPC   G2P 4291   9.768   4.370   5.883 -0.3377 -0.1567 -0.1878
  247POPC   G2M 4292   9.904   4.416   5.901  0.3020  0.2572  0.4573
  247POPC   C1A 4293  10.167   4.292   5.871 -0.3340  0.0094 -0.1015
  247POPC   C2A 4294  10.160   3.997   6.232 -0.1372  0.0418 -0.2536
  247POPC   C3A 4295  10.373   3.632   6.399 -0.0005  0.0135 -0.0978
  247POPC   C4A 4296  10.660   3.434   6.637 -0.2189 -0.0662 -0.0053
  247POPC   C1B 4297   9.171   4.640   6.236  0.1552 -0.0847 -0.3669
  247POPC   C2B 4298   9.011   4.697   6.593 -0.0649 -0.1457 -0.4093
  247POPC   D3B 4299   8.985   4.665   7.033 -0.2162  0.0083  0.1645
  247POPC   C4B 4300   8.669   4.784   7.352 -0.1211 -0.0583  0.2720
  247POPC   C5B 4301   8.636   5.065   7.714 -0.0973 -0.4159  0.0363
  248POPC   NC3 4302  11.031   8.480   5.027  0.1889 -0.2250  0.2627
  248POPC   PO4 4303  11.411   8.945   4.863 -0.0878 -0.0242  0.1870
  248POPC   GL1 4304  11.521   8.810   5.239  0.1132  0.1922  0.2671
  248POPC   G1P 4305  11.517   8.742   5.362  0.3140 -0.0584  0.1392
  248POPC   G1M 4306  11.556   8.680   5.201 -0.4601  0.1294 -0.1063
  248POPC   GL2 4307  11.604   9.114   5.370  0.1433  0.1428  0.3676
  248POPC   G2P 4308  11.528   9.008   5.421  0.0896  0.1943  0.3959
  248POPC   G2M 4309  11.648   8.999   5.303  0.3109  0.3462  0.1178
  248POPC   C1A 4310  11.759   9.343   5.701  0.2792  0.3499  0.4767
  248POPC   C2A 4311   0.019   9.438   5.853  0.0522  0.2506  0.0234
  248POPC   C3A 4312   0.197   9.551   6.301  0.1509 -0.1341 -0.0423
  248POPC   C4A 4313   0.218   9.569   6.796 -0.4439  0.4294 -0.0920
  248POPC   C1B 4314  11.625   8.629   5.633 -0.3655 -0.3559 -0.0225
  248POPC   C2B 4315  11.882   8.510   5.819  0.0292 -0.2250  0.0641
  248POPC   D3B 4316   0.020   8.618   6.001  0.0519 -0.4334 -0.0946
  248POPC   C4B 4317   0.125   8.445   6.389 -0.0944  0.3340  0.3990
  248POPC   C5B 4318  12.067   8.168   6.746 -0.0990  0.0389 -0.2377
  249POPC   NC3 4319   6.709   6.299   4.747  0.0315  0.0569  0.2495
  249POPC   PO4 4320   6.855   6.822   5.081  0.1356 -0.0847 -0.0352
  249POPC   GL1 4321   7.126   6.804   5.507 -0.8457 -0.3608 -0.0517
  249POPC   G1P 4322   7.260   6.802   5.465 -0.7456  0.3307  0.1792
  249POPC   G1M 4323   7.170   6.828   5.376  0.3131  0.3249  0.3838
  249POPC   GL2 4324   7.092   6.454   5.821  0.0273 -0.1438  0.0137
  249POPC   G2P 4325   7.231   6.469   5.824  0.0324 -0.2007  0.4064
  249POPC   G2M 4326   7.105   6.315   5.835  0.1250 -0.1152  0.2169
  249POPC   C1A 4327   7.508   6.325   6.006  0.4178 -0.1387  0.0787
  249POPC   C2A 4328   7.675   6.288   6.446  0.2218  0.0368  0.2607
  249POPC   C3A 4329   8.007   6.274   6.703 -0.0109 -0.2440  0.0627
  249POPC   C4A 4330   8.403   6.550   6.900 -0.0771 -0.0512  0.0314
  249POPC   C1B 4331   7.437   6.809   5.878 -0.0785  0.0048  0.3237
  249POPC   C2B 4332   7.505   7.140   6.185  0.0038 -0.0896 -0.1894
  249POPC   D3B 4333   7.152   7.270   6.337  0.0272  0.0167  0.2478
  249POPC   C4B 4334   6.881   7.112   6.539 -0.3408 -0.3911  0.2865
  249POPC   C5B 4335   6.818   6.945   6.956 -0.3008 -0.1224 -0.3240
  250POPC   NC3 4336   5.024   7.111   4.784 -0.0072 -0.1081  0.0159
  250POPC   PO4 4337   4.652   6.856   4.464  0.2728 -0.0306 -0.0794
  250POPC   GL1 4338   4.709   6.806   4.940  0.3373  0.1632 -0.0089
  250POPC   G1P 4339   4.699   6.866   5.066 -0.3363  0.0811 -0.0057
  250POPC   G1M 4340   4.816   6.897   4.944 -0.1891  0.8322 -0.1752
  250POPC   GL2 4341   4.431   6.691   5.213 -0.0765 -0.1500 -0.0693
  250POPC   G2P 4342   4.514   6.592   5.160  0.5681  0.1048  0.4030
  250POPC   G2M 4343   4.513   6.756   5.120 -0.1154  0.2212  0.1473
  250POPC   C1A 4344   4.513   6.946   5.564 -0.1631 -0.1955  0.2046
  250POPC   C2A 4345   4.449   6.804   5.994 -0.0449  0.1526 -0.0831
  250POPC   C3A 4346   4.142   6.621   6.086 -0.0159 -0.2759 -0.4746
  250POPC   C4A 4347   3.914   6.473   6.399  0.2200  0.0213  0.1284
  250POPC   C1B 4348   4.959   6.899   5.279 -0.1333 -0.0557  0.2120
  250POPC   C2B 4349   4.930   6.773   5.816 -0.1287 -0.0204  0.0603
  250POPC   D3B 4350   4.975   6.684   6.200 -0.0190 -0.1698 -0.1430
  250POPC   C4B 4351   5.087   6.367   6.392 -0.1851 -0.0914 -0.0278
  250POPC   C5B 4352   5.221   6.017   6.248  0.0583 -0.0884 -0.0023
  251POPC   NC3 4353   4.804  10.080   5.277 -0.1524  0.0240 -0.3071
  251POPC   PO4 4354   4.354  10.366   5.060  0.1294 -0.0681 -0.2096
  251POPC   GL1 4355   4.485  10.555   5.478  0.0528 -0.5989 -0.1361
  251POPC   G1P 4356   4.543  10.657   5.403 -0.4464 -0.1587  0.0416
  251POPC   G1M 4357   4.444  10.575   5.346 -0.0052 -0.2542 -0.0723
  251POPC   GL2 4358   4.838  10.497   5.684 -0.0422  0.2650 -0.1267
  251POPC   G2P 4359   4.781  10.459   5.562 -0.1241  0.1600 -0.0570
  251POPC   G2M 4360   4.718  10.562   5.655 -0.2886 -0.1895 -0.1782
  251POPC   C1A 4361   5.162  10.603   6.018  0.3109 -0.1211 -0.0923
  251POPC   C2A 4362   5.150  11.036   6.249 -0.2196 -0.3134 -0.1698
  251POPC   C3A 4363   5.536  11.237   6.402  0.2554  0.0365  0.2722
  251POPC   C4A 4364   5.968  11.442   6.557  0.4593  0.1617  0.0959
  251POPC   C1B 4365   4.373  11.009   5.621  0.0833  0.0163 -0.1422
  251POPC   C2B 4366   4.042  11.215   5.829 -0.0482 -0.0811  0.0501
  251POPC   D3B 4367   3.693  11.545   5.859 -0.1968  0.1800 -0.1221
  251POPC   C4B 4368   3.420  11.629   6.144  0.1149 -0.2482 -0.2201
  251POPC   C5B 4369   3.131  11.780   6.474  0.0714  0.1181 -0.1279
  252POPC   NC3 4370   4.376   3.016   5.349  0.0742  0.0382  0.0223
  252POPC   PO4 4371   4.272   3.593   5.267  0.1052  0.0407  0.1270
  252POPC   GL1 4372   4.289   3.869   5.667  0.1078 -0.1586 -0.0256
  252POPC   G1P 4373   4.304   3.732   5.640 -0.4589 -0.2200 -0.0944
  252POPC   G1M 4374   4.307   3.902   5.532 -0.3421 -0.0132 -0.0568
  252POPC   GL2 4375   4.600   3.965   5.633 -0.1705 -0.3488  0.2290
  252POPC   G2P 4376   4.465   3.955   5.600 -0.2009  0.0703  0.1946
  252POPC   G2M 4377   4.644   3.943   5.502  0.1290  0.0597  0.2497
  252POPC   C1A 4378   4.732   4.234   5.896  0.1291 -0.0916  0.0520
  252POPC   C2A 4379   4.639   4.269   6.418  0.2413  0.0289 -0.0477
  252POPC   C3A 4380   4.435   4.404   6.737 -0.2365  0.2897  0.0216
  252POPC   C4A 4381   4.596   4.757   7.033 -0.2632 -0.2677 -0.2147
  252POPC   C1B 4382   4.312   3.767   6.096  0.0506 -0.0562 -0.1405
  252POPC   C2B 4383   4.258   3.922   6.545 -0.1210  0.0443 -0.0193
  252POPC   D3B 4384   4.032   3.721   6.871  0.0099 -0.2443 -0.0626
  252POPC   C4B 4385   4.165   3.837   7.260 -0.3693 -0.2662 -0.0816
  252POPC   C5B 4386   4.247   3.971   7.780 -0.2047  0.1038 -0.1747
  253POPC   NC3 4387  11.582   0.659   5.240  0.0440  0.5047 -0.2350
  253POPC   PO4 4388  11.082   0.793   5.010 -0.1407 -0.2416  0.0302
  253POPC   GL1 4389  11.268   0.960   5.408  0.2852 -0.0968  0.5044
  253POPC   G1P 4390  11.291   1.084   5.347 -0.0162 -0.3129 -0.0909
  253POPC   G1M 4391  11.362   0.902   5.322  0.0858  0.0088  0.2075
  253POPC   GL2 4392  11.180   0.713   5.563  0.0827 -0.0179 -0.5895
  253POPC   G2P 4393  11.312   0.732   5.602 -0.0488 -0.1389 -0.0401
  253POPC   G2M 4394  11.246   0.835   5.582 -0.1939  0.0457  0.1157
  253POPC   C1A 4395  10.831   0.872   5.573 -0.1290 -0.3714 -0.0700
  253POPC   C2A 4396  10.605   1.007   5.781 -0.1601  0.0103  0.0452
  253POPC   C3A 4397  10.409   1.272   6.186 -0.0927  0.1209 -0.1662
  253POPC   C4A 4398   9.994   1.307   6.357  0.1407 -0.1745  0.0184
  253POPC   C1B 4399  11.249   1.142   5.888 -0.0122 -0.1171 -0.1639
  253POPC   C2B 4400  10.952   1.197   6.264  0.3380  0.3571  0.1482
  253POPC   D3B 4401  10.990   1.160   6.693  0.2302  0.1722 -0.3285
  253POPC   C4B 4402  10.807   0.880   6.972 -0.0268 -0.1210  0.0740
  253POPC   C5B 4403  10.876   0.836   7.359  0.3933 -0.2400  0.3674
  254POPC   NC3 4404   8.570   0.151   4.757 -0.0599 -0.0324  0.1431
  254POPC   PO4 4405   8.345  11.979   5.160 -0.0758  0.1454 -0.1068
  254POPC   GL1 4406   8.299  11.683   5.434 -0.1770 -0.5159 -0.4448
  254POPC   G1P 4407   8.406  11.718   5.350 -0.5885  0.2722 -0.6919
  254POPC   G1M 4408   8.265  11.819   5.430  0.1734 -0.4168 -0.2400
  254POPC   GL2 4409   8.284  11.377   5.361 -0.1274 -0.5375  0.1909
  254POPC   G2P 4410   8.404  11.351   5.292  0.2675 -0.1492  0.6908
  254POPC   G2M 4411   8.396  11.369   5.444  0.3224 -0.2273 -0.3491
  254POPC   C1A 4412   8.352  11.116   5.704  0.2253  0.0117  0.1283
  254POPC   C2A 4413   8.250  11.141   6.170 -0.3410 -0.1134  0.2942
  254POPC   C3A 4414   8.592  11.415   6.246  0.0782 -0.0328 -0.1259
  254POPC   C4A 4415   9.045  11.435   6.202  0.0638 -0.3141  0.1249
  254POPC   C1B 4416   7.951  11.399   5.714  0.1010  0.1524  0.0568
  254POPC   C2B 4417   7.511  11.492   5.953  0.0365 -0.2738 -0.2886
  254POPC   D3B 4418   7.045  11.474   5.933  0.0121 -0.3447 -0.0038
  254POPC   C4B 4419   6.840  11.710   6.264 -0.1011  0.2412 -0.1321
  254POPC   C5B 4420   6.738   0.008   6.526  0.0048  0.1289  0.0203
  255POPC   NC3 4421   7.694   0.898   5.348 -0.0916 -0.0450 -0.2686
  255POPC   PO4 4422   7.553   0.321   5.386 -0.0329 -0.2000  0.3320
  255POPC   GL1 4423   7.768   0.451   5.715 -0.0463 -0.0681  0.1427
  255POPC   G1P 4424   7.864   0.495   5.807 -0.2220  0.2436  0.1863
  255POPC   G1M 4425   7.879   0.381   5.665 -0.0699 -0.0019 -0.0056
  255POPC   GL2 4426   7.716   0.856   5.869 -0.3529  0.0359  0.1321
  255POPC   G2P 4427   7.837   0.816   5.928 -0.1470  0.0334 -0.2757
  255POPC   G2M 4428   7.758   0.746   5.794 -0.2414  0.2576 -0.1425
  255POPC   C1A 4429   8.094   1.032   5.814 -0.0321 -0.0459 -0.1768
  255POPC   C2A 4430   8.433   1.314   5.937 -0.1086 -0.1363  0.1431
  255POPC   C3A 4431   8.800   1.600   6.089  0.1413 -0.2179 -0.0798
  255POPC   C4A 4432   9.184   1.843   6.362 -0.0103 -0.0313  0.0933
  255POPC   C1B 4433   8.198   0.535   5.906 -0.2708  0.1971 -0.2705
  255POPC   C2B 4434   8.463   0.777   6.143  0.2465  0.1040 -0.1234
  255POPC   D3B 4435   8.418   1.022   6.504 -0.1506 -0.0311  0.1792
  255POPC   C4B 4436   8.353   1.043   6.978 -0.3620 -0.3377 -0.1056
  255POPC   C5B 4437   8.531   0.982   7.380  0.0897  0.0192  0.2022
  256POPC   NC3 4438   1.187   1.433   5.175  0.0947  0.0940  0.1852
  256POPC   PO4 4439   1.050   0.827   5.110 -0.1059 -0.0759 -0.2278
  256POPC   GL1 4440   1.227   0.557   5.372 -0.0205  0.6181  0.1901
  256POPC   G1P 4441   1.359   0.533   5.412  0.0748  0.4131 -0.2184
  256POPC   G1M 4442   1.332   0.590   5.287 -0.0947 -0.5295 -0.4475
  256POPC   GL2 4443   1.222   0.717   5.774  0.1757  0.2677  0.1536
  256POPC   G2P 4444   1.239   0.726   5.912  0.4871  0.0590  0.1329
  256POPC   G2M 4445   1.353   0.760   5.798  0.1048  0.3914  0.3329
  256POPC   C1A 4446   1.190   1.215   5.691 -0.1568  0.0761 -0.3226
  256POPC   C2A 4447   1.330   1.540   6.025 -0.1824 -0.0094  0.0853
  256POPC   C3A 4448   1.183   1.559   6.362  0.0066  0.0414 -0.1683
  256POPC   C4A 4449   0.999   1.257   6.740 -0.2606 -0.1757  0.2614
  256POPC   C1B 4450   1.550   0.411   5.657 -0.1356 -0.0037 -0.0234
  256POPC   C2B 4451   1.965   0.372   5.812  0.5162  0.2530  0.0405
  256POPC   D3B 4452   2.351   0.236   5.815 -0.1755  0.0812 -0.3038
  256POPC   C4B 4453   2.610  11.954   5.753 -0.2845 -0.2908 -0.1481
  256POPC   C5B 4454   2.815  11.717   6.069  0.0725  0.3475 -0.2416
  257POPC   NC3 4455   7.289   9.425   5.170  0.0952  0.1300  0.1473
  257POPC   PO4 4456   7.855   9.233   5.069  0.1725  0.1776 -0.4302
  257POPC   GL1 4457   7.950   9.081   5.444 -0.3198  0.0213 -0.2014
  257POPC   G1P 4458   8.046   9.047   5.539 -0.1349 -0.6026 -0.5821
  257POPC   G1M 4459   8.058   9.153   5.394  0.0088 -0.0805  0.3267
  257POPC   GL2 4460   8.123   9.351   5.532 -0.3046 -0.1624  0.0510
  257POPC   G2P 4461   8.071   9.225   5.561 -0.1947 -0.2549 -0.1428
  257POPC   G2M 4462   8.144   9.314   5.665  0.0587  0.0378  0.0552
  257POPC   C1A 4463   8.251   9.547   5.958  0.2919  0.0977  0.0900
  257POPC   C2A 4464   8.426   9.900   6.146  0.1504  0.2226  0.0608
  257POPC   C3A 4465   8.845   9.934   6.306  0.1207  0.1066 -0.3149
  257POPC   C4A 4466   9.102  10.032   6.641  0.0686  0.2745 -0.3093
  257POPC   C1B 4467   8.123   8.921   5.816  0.2534 -0.1708 -0.2442
  257POPC   C2B 4468   8.393   8.698   6.216 -0.1472  0.0760  0.1158
  257POPC   D3B 4469   8.607   8.647   6.621  0.2551  0.0257 -0.0954
  257POPC   C4B 4470   8.593   8.516   7.091 -0.0004 -0.2631  0.3329
  257POPC   C5B 4471   8.474   8.394   7.378  0.0529 -0.1514 -0.4321
  258POPC   NC3 4472   7.234   4.331   5.069 -0.1089  0.1530  0.2879
  258POPC   PO4 4473   6.694   4.551   5.123  0.1070  0.2548 -0.1321
  258POPC   GL1 4474   6.843   4.565   5.533 -0.3315 -0.2863  0.1738
  258POPC   G1P 4475   6.711   4.612   5.538 -0.0969  0.5586 -0.3600
  258POPC   G1M 4476   6.780   4.523   5.415  0.0065 -0.0655 -0.0959
  258POPC   GL2 4477   7.144   4.485   5.596 -0.2982 -0.4396  0.0583
  258POPC   G2P 4478   7.014   4.439   5.620 -0.5157  0.0905 -0.0165
  258POPC   G2M 4479   7.068   4.592   5.646  0.0678 -0.3143  0.3766
  258POPC   C1A 4480   7.514   4.570   5.905 -0.0185  0.0720  0.3367
  258POPC   C2A 4481   7.984   4.439   6.203  0.1130 -0.2147  0.0107
  258POPC   C3A 4482   8.071   4.301   6.642 -0.0701  0.0865 -0.0362
  258POPC   C4A 4483   7.987   4.355   7.089  0.0068 -0.0461  0.1813
  258POPC   C1B 4484   7.073   4.848   5.958  0.0363  0.0673 -0.0168
  258POPC   C2B 4485   6.796   5.033   6.243  0.0159  0.1333 -0.0692
  258POPC   D3B 4486   6.614   5.419   6.435  0.2093 -0.0724  0.2226
  258POPC   C4B 4487   6.621   5.795   6.270 -0.0630  0.0707  0.0957
  258POPC   C5B 4488   6.566   6.245   6.173 -0.1109  0.0899  0.4368
  259POPC   NC3 4489  10.277   9.742   4.748  0.4022  0.1780 -0.0338
  259POPC   PO4 4490  10.519   9.213   4.709 -0.0886  0.1601  0.1383
  259POPC   GL1 4491  10.703   8.946   5.143  0.1688  0.4645  0.1926
  259POPC   G1P 4492  10.693   8.948   5.004 -0.2203 -0.1733  0.1918
  259POPC   G1M 4493  10.776   9.046   5.079  0.1436  0.1418 -0.3704
  259POPC   GL2 4494  10.427   8.971   5.186  0.4530 -0.0155 -0.1285
  259POPC   G2P 4495  10.529   9.048   5.128  0.1413  0.3561 -0.2091
  259POPC   G2M 4496  10.517   9.026   5.278  0.2358  0.3278 -0.1094
  259POPC   C1A 4497  10.246   8.917   5.578  0.1360  0.1430  0.0072
  259POPC   C2A 4498  10.249   8.773   5.902  0.3784  0.0294  0.1226
  259POPC   C3A 4499  10.100   8.958   6.265 -0.3322  0.1898  0.0205
  259POPC   C4A 4500   9.723   8.872   6.505  0.0230  0.1168 -0.0864
  259POPC   C1B 4501  10.726   9.030   5.610 -0.0983 -0.2231  0.1153
  259POPC   C2B 4502  10.512   9.158   6.041  0.2732 -0.0329  0.0446
  259POPC   D3B 4503  10.544   8.936   6.471 -0.1436  0.1371 -0.2491
  259POPC   C4B 4504  10.211   8.954   6.730  0.0078 -0.4349 -0.0766
  259POPC   C5B 4505  10.155   8.889   7.192  0.0328  0.2802  0.0667
  260POPC   NC3 4506  10.579  11.317   4.621  0.0379 -0.2657 -0.0695
  260POPC   PO4 4507  10.303  11.710   5.026 -0.0505 -0.0304  0.2845
  260POPC   GL1 4508  10.342  11.658   5.402 -0.0834 -0.1431 -0.0368
  260POPC   G1P 4509  10.448  11.744   5.374 -0.2417  0.1267  0.1736
  260POPC   G1M 4510  10.291  11.674   5.272  0.6925 -0.0945 -0.3615
  260POPC   GL2 4511  10.560  11.450   5.377  0.0654 -0.4301  0.0611
  260POPC   G2P 4512  10.602  11.386   5.260 -0.1526 -0.3993 -0.0357
  260POPC   G2M 4513  10.658  11.383   5.452  0.1978 -0.5704 -0.2304
  260POPC   C1A 4514  10.658  11.318   5.732 -0.2691  0.0770  0.0502
  260POPC   C2A 4515  10.816  11.055   6.006 -0.1969  0.1528  0.0154
  260POPC   C3A 4516  11.243  11.241   6.282 -0.0347 -0.0629  0.2014
  260POPC   C4A 4517  11.618  11.413   6.219  0.1030  0.0278 -0.2847
  260POPC   C1B 4518  10.229  11.655   5.762  0.1138 -0.0078  0.1338
  260POPC   C2B 4519  10.269  11.347   6.103  0.1023 -0.1317  0.1975
  260POPC   D3B 4520  10.218  10.907   6.305  0.0831  0.1955 -0.1953
  260POPC   C4B 4521  10.583  10.558   6.252  0.0937  0.0380  0.0561
  260POPC   C5B 4522  10.991  10.452   6.263 -0.0348 -0.1370 -0.0747
  261POPC   NC3 4523   6.249   2.159   4.745 -0.0384  0.1209 -0.0710
  261POPC   PO4 4524   6.578   1.717   4.747 -0.0822 -0.0544  0.2385
  261POPC   GL1 4525   6.565   1.544   5.208  0.0126 -0.3037 -0.0743
  261POPC   G1P 4526   6.451   1.466   5.180 -0.0053 -0.2510 -0.1475
  261POPC   G1M 4527   6.503   1.620   5.109 -0.2884 -0.4021  0.0287
  261POPC   GL2 4528   6.771   1.636   5.443  0.3134  0.1945 -0.1979
  261POPC   G2P 4529   6.884   1.661   5.364  0.2286 -0.0786 -0.4162
  261POPC   G2M 4530   6.732   1.764   5.402  0.0868  0.1425 -0.1504
  261POPC   C1A 4531   6.852   1.355   5.759 -0.2854 -0.1572 -0.0737
  261POPC   C2A 4532   6.857   0.902   5.843  0.0802  0.2379 -0.0077
  261POPC   C3A 4533   6.755   0.666   6.155 -0.0054  0.1254  0.3122
  261POPC   C4A 4534   6.541   0.374   6.342  0.1214  0.1983 -0.2525
  261POPC   C1B 4535   6.378   1.440   5.623 -0.0972  0.0867  0.1012
  261POPC   C2B 4536   6.333   1.029   5.827 -0.2888 -0.0019  0.0307
  261POPC   D3B 4537   6.273   0.662   6.024 -0.0755  0.1048 -0.1842
  261POPC   C4B 4538   6.082   0.260   6.159 -0.0437  0.3457  0.0195
  261POPC   C5B 4539   5.782   0.026   6.186  0.2111  0.1137  0.3256
  262POPC   NC3 4540   1.177   6.383   5.168  0.1337 -0.4386 -0.0485
  262POPC   PO4 4541   1.621   6.607   5.378  0.1353 -0.4738  0.0831
  262POPC   GL1 4542   1.707   6.168   5.634 -0.1679  0.2918 -0.0647
  262POPC   G1P 4543   1.675   6.179   5.770  0.0720 -0.1000  0.0329
  262POPC   G1M 4544   1.827   6.222   5.683 -0.4322  0.6653  0.1994
  262POPC   GL2 4545   2.046   6.054   5.589 -0.7166 -0.2655  0.4066
  262POPC   G2P 4546   2.131   5.974   5.666  0.5641  0.0791 -0.4847
  262POPC   G2M 4547   2.118   5.940   5.551 -0.3359  0.1551 -0.2357
  262POPC   C1A 4548   2.399   6.332   5.749  0.0794  0.2283  0.1398
  262POPC   C2A 4549   2.460   6.655   6.050 -0.5045  0.1217  0.1503
  262POPC   C3A 4550   2.663   6.948   6.351  0.0876 -0.0628 -0.0571
  262POPC   C4A 4551   3.145   7.031   6.422 -0.1329 -0.0153 -0.2964
  262POPC   C1B 4552   1.901   5.881   5.997  0.4522 -0.2213 -0.1366
  262POPC   C2B 4553   1.791   5.511   5.952 -0.0271 -0.1544 -0.0990
  262POPC   D3B 4554   1.746   5.197   6.238 -0.2159  0.1072 -0.1648
  262POPC   C4B 4555   1.915   5.219   6.591 -0.1430  0.1337  0.0377
  262POPC   C5B 4556   2.071   5.485   6.870 -0.1736 -0.1048  0.2030
  263POPC   NC3 4557   4.841   5.620   5.174  0.1163 -0.1657  0.2165
  263POPC   PO4 4558   5.255   5.539   5.401 -0.4666 -0.1998  0.1892
  263POPC   GL1 4559   5.523   5.252   5.651 -0.1260  0.3040  0.2790
  263POPC   G1P 4560   5.625   5.338   5.609 -0.0586  0.1454  0.1124
  263POPC   G1M 4561   5.496   5.359   5.565  0.0367 -0.1718 -0.4083
  263POPC   GL2 4562   5.251   4.943   5.739  0.5506 -0.0970 -0.2821
  263POPC   G2P 4563   5.256   5.002   5.866  0.5220 -0.1156 -0.2723
  263POPC   G2M 4564   5.300   4.898   5.862  0.3679  0.6768  0.1010
  263POPC   C1A 4565   5.304   4.513   5.974  0.1956  0.2100  0.0507
  263POPC   C2A 4566   5.186   4.186   6.381 -0.0451 -0.0623 -0.0476
  263POPC   C3A 4567   5.018   4.022   6.744  0.0556  0.1402 -0.0752
  263POPC   C4A 4568   4.990   3.687   6.883 -0.0806 -0.4572 -0.1227
  263POPC   C1B 4569   5.617   5.050   6.112  0.1919  0.4577  0.0781
  263POPC   C2B 4570   5.405   4.724   6.405 -0.1423  0.0843 -0.0187
  263POPC   D3B 4571   5.009   4.680   6.615 -0.1292  0.3780 -0.2724
  263POPC   C4B 4572   4.789   5.032   6.660 -0.0249  0.0537 -0.1258
  263POPC   C5B 4573   4.280   5.102   6.808 -0.4523 -0.2578  0.0572
  264POPC   NC3 4574   2.869   4.347   4.993  0.1512 -0.0642  0.1306
  264POPC   PO4 4575   2.355   4.090   4.947 -0.0432 -0.0325 -0.3763
  264POPC   GL1 4576   2.503   3.993   5.290 -0.0211 -0.0872 -0.0947
  264POPC   G1P 4577   2.455   4.121   5.258  0.0000 -0.0013  0.1993
  264POPC   G1M 4578   2.392   3.972   5.208  0.1565 -0.1701 -0.3194
  264POPC   GL2 4579   2.178   4.154   5.522  0.1355  0.0391  0.1392
  264POPC   G2P 4580   2.218   4.036   5.586  0.1972 -0.1569 -0.2484
  264POPC   G2M 4581   2.200   4.136   5.659 -0.2278  0.4359  0.2627
  264POPC   C1A 4582   1.805   3.920   5.752 -0.0050 -0.0569 -0.2622
  264POPC   C2A 4583   1.674   3.745   6.077  0.1473 -0.1384 -0.3409
  264POPC   C3A 4584   1.536   3.415   6.200 -0.1804 -0.2062 -0.1381
  264POPC   C4A 4585   1.158   3.260   6.049  0.0568  0.2371  0.1678
  264POPC   C1B 4586   2.741   4.050   5.773  0.0346  0.0591  0.1912
  264POPC   C2B 4587   3.043   4.042   6.184 -0.0909  0.0586 -0.2694
  264POPC   D3B 4588   3.137   3.735   6.486  0.3036  0.2835 -0.1305
  264POPC   C4B 4589   3.406   3.631   6.754  0.1180 -0.2428 -0.2657
  264POPC   C5B 4590   3.514   3.363   7.000 -0.2244  0.0326 -0.2410
  265POPC   NC3 4591   5.892   8.670   4.967 -0.2121 -0.1106  0.0634
  265POPC   PO4 4592   5.415   8.312   5.052  0.0178  0.1100  0.2936
  265POPC   GL1 4593   5.320   7.992   5.398  0.1193 -0.0974  0.0573
  265POPC   G1P 4594   5.314   7.862   5.348  0.4406 -0.0186 -0.2008
  265POPC   G1M 4595   5.307   8.029   5.264  0.0589  0.1257  0.1214
  265POPC   GL2 4596   4.939   7.872   5.402  0.0446  0.2800  0.0259
  265POPC   G2P 4597   5.077   7.871   5.426  0.0714  0.1050 -0.1222
  265POPC   G2M 4598   5.040   7.969   5.400  0.2159  0.1263  0.5280
  265POPC   C1A 4599   4.842   7.791   5.855  0.1604 -0.0635  0.0729
  265POPC   C2A 4600   4.936   7.961   6.278  0.0618  0.1583  0.3675
  265POPC   C3A 4601   5.100   8.073   6.654  0.0040  0.0458 -0.1395
  265POPC   C4A 4602   5.496   8.184   6.820  0.0942  0.3669 -0.0134
  265POPC   C1B 4603   5.537   7.600   5.510 -0.0029 -0.2310  0.2022
  265POPC   C2B 4604   5.523   7.156   5.667  0.0654  0.0050 -0.0619
  265POPC   D3B 4605   5.622   6.819   5.835  0.2384  0.3521 -0.0191
  265POPC   C4B 4606   5.877   7.043   6.077  0.0939  0.2196  0.2098
  265POPC   C5B 4607   6.130   7.335   6.395 -0.0111  0.0570  0.2333
  266POPC   NC3 4608   5.553   2.838   4.771  0.0473  0.0662 -0.2696
  266POPC   PO4 4609   5.709   2.785   5.335 -0.3013 -0.1136 -0.0087
  266POPC   GL1 4610   5.875   2.875   5.747 -0.0266  0.4687  0.2712
  266POPC   G1P 4611   5.830   3.002   5.709  0.2231  0.5280  0.1672
  266POPC   G1M 4612   5.751   2.845   5.690  0.1371  0.0608  0.1108
  266POPC   GL2 4613   5.942   3.263   5.768  0.3854 -0.2541 -0.2305
  266POPC   G2P 4614   5.903   3.234   5.636  0.0557 -0.4325 -0.0998
  266POPC   G2M 4615   5.803   3.246   5.772  0.3668 -0.3097 -0.7344
  266POPC   C1A 4616   6.052   3.227   6.107  0.2477  0.0180 -0.0560
  266POPC   C2A 4617   6.126   2.940   6.382 -0.3212  0.0105  0.0634
  266POPC   C3A 4618   6.017   2.656   6.647  0.1155 -0.0018 -0.2727
  266POPC   C4A 4619   5.789   2.192   6.489 -0.0352  0.1385 -0.2245
  266POPC   C1B 4620   6.317   2.705   5.909 -0.3037 -0.0274 -0.1489
  266POPC   C2B 4621   6.690   2.421   5.932 -0.0175 -0.0749 -0.2049
  266POPC   D3B 4622   7.025   2.399   6.063 -0.0345 -0.1076  0.0595
  266POPC   C4B 4623   7.041   2.190   6.428 -0.1206 -0.1865 -0.3109
  266POPC   C5B 4624   7.227   2.057   6.769 -0.0063 -0.4191 -0.1416
  267POPC   NC3 4625   7.483   6.165   4.984  0.4236  0.0103 -0.1648
  267POPC   PO4 4626   6.906   5.962   5.031 -0.1565 -0.3994  0.2106
  267POPC   GL1 4627   7.106   5.927   5.477 -0.1510 -0.1349  0.1924
  267POPC   G1P 4628   7.162   6.044   5.530 -0.2542  0.2047 -0.4025
  267POPC   G1M 4629   7.117   5.989   5.352 -0.5392  0.0952  0.2609
  267POPC   GL2 4630   7.436   5.888   5.430  0.2337  0.1520  0.2346
  267POPC   G2P 4631   7.400   5.756   5.461 -0.0934  0.2021  0.0863
  267POPC   G2M 4632   7.309   5.860   5.483  0.2418 -0.2868  0.0454
  267POPC   C1A 4633   7.258   5.544   5.757  0.0962  0.1563 -0.5750
  267POPC   C2A 4634   7.026   5.430   6.029  0.1527 -0.1179  0.0883
  267POPC   C3A 4635   7.062   5.733   6.447  0.1001 -0.0876  0.0873
  267POPC   C4A 4636   6.998   5.724   6.804 -0.2095 -0.1286  0.2009
  267POPC   C1B 4637   6.986   5.960   5.902 -0.6631  0.0965  0.2165
  267POPC   C2B 4638   7.119   6.263   6.300 -0.1630  0.1388  0.1773
  267POPC   D3B 4639   7.314   6.692   6.352  0.4970 -0.1313 -0.1122
  267POPC   C4B 4640   7.599   6.822   6.588 -0.0138  0.2066 -0.0105
  267POPC   C5B 4641   7.927   6.714   6.840  0.2309 -0.2465 -0.0968
  268POPC   NC3 4642   6.817  11.559   4.528 -0.0770 -0.0506  0.3857
  268POPC   PO4 4643   6.611  12.026   4.820  0.3012 -0.3529 -0.0416
  268POPC   GL1 4644   6.919  12.016   5.337  0.1653  0.5502 -0.2363
  268POPC   G1P 4645   6.781  12.024   5.361 -0.0194 -0.7918 -0.4307
  268POPC   G1M 4646   6.830  11.970   5.239 -0.0366 -0.2454  0.2694
  268POPC   GL2 4647   7.034   0.249   5.393  0.1224 -0.5176 -0.0655
  268POPC   G2P 4648   7.141   0.326   5.344 -0.2077  0.1839  0.2343
  268POPC   G2M 4649   7.024   0.286   5.258 -0.4836 -0.1512  0.0609
  268POPC   C1A 4650   7.298   0.363   5.845 -0.0819 -0.0344  0.1404
  268POPC   C2A 4651   7.555   0.269   6.149 -0.0431 -0.0266 -0.1709
  268POPC   C3A 4652   7.735  11.957   6.330 -0.1942 -0.0720  0.0345
  268POPC   C4A 4653   8.147  11.726   6.123  0.2462  0.2511 -0.1859
  268POPC   C1B 4654   7.033  12.019   5.789  0.2296 -0.2387  0.0610
  268POPC   C2B 4655   7.117   0.080   6.187  0.2090  0.4092  0.5159
  268POPC   D3B 4656   7.165   0.250   6.556  0.1549  0.4965 -0.1069
  268POPC   C4B 4657   6.947   0.279   6.926 -0.0007  0.2904  0.5140
  268POPC   C5B 4658   6.456   0.426   6.993 -0.1226  0.0292 -0.3368
  269POPC   NC3 4659   1.902   7.280   5.139  0.0119 -0.0717  0.0455
  269POPC   PO4 4660   1.768   7.587   4.700 -0.0902 -0.0783  0.0147
  269POPC   GL1 4661   1.732   7.806   5.167  0.2996 -0.3143 -0.0474
  269POPC   G1P 4662   1.843   7.761   5.238  0.2955 -0.5870 -0.2055
  269POPC   G1M 4663   1.705   7.669   5.151 -0.1857 -0.1896 -0.4289
  269POPC   GL2 4664   1.442   7.695   5.314 -0.4903 -0.4140  0.4714
  269POPC   G2P 4665   1.508   7.638   5.205  0.1117  0.6702  0.1976
  269POPC   G2M 4666   1.360   7.697   5.200  0.2070 -0.1993 -0.0574
  269POPC   C1A 4667   1.719   7.647   5.728  0.1217  0.4333 -0.0600
  269POPC   C2A 4668   1.957   7.690   6.011 -0.3928  0.4541 -0.2058
  269POPC   C3A 4669   1.988   7.708   6.464  0.0642 -0.2310  0.1763
  269POPC   C4A 4670   1.671   7.706   6.709 -0.0525 -0.2067 -0.1075
  269POPC   C1B 4671   1.664   8.102   5.576  0.2300 -0.0208  0.1705
  269POPC   C2B 4672   1.454   8.180   5.920  0.1256  0.2207 -0.2229
  269POPC   D3B 4673   1.505   8.015   6.329 -0.0199 -0.1717 -0.2519
  269POPC   C4B 4674   1.179   7.851   6.626  0.2877 -0.1665  0.1021
  269POPC   C5B 4675   0.738   7.792   6.770  0.0335  0.1618  0.1281
  270POPC   NC3 4676   7.623  10.813   4.874  0.0251 -0.0413 -0.1288
  270POPC   PO4 4677   7.075  10.962   5.027  0.0318 -0.3591 -0.1302
  270POPC   GL1 4678   7.229  11.199   5.280  0.0415  0.2389  0.7867
  270POPC   G1P 4679   7.117  11.280   5.300  0.0133  0.4557 -0.0681
  270POPC   G1M 4680   7.121  11.142   5.211  0.5480 -0.0050  0.1318
  270POPC   GL2 4681   7.458  11.163   5.553 -0.1923  0.2387  0.2830
  270POPC   G2P 4682   7.341  11.131   5.623 -0.0214 -0.4288  0.2945
  270POPC   G2M 4683   7.333  11.161   5.489 -0.1055  0.4332  0.0972
  270POPC   C1A 4684   7.708  10.869   5.817  0.0836  0.3798  0.1514
  270POPC   C2A 4685   8.027  10.597   5.962 -0.0605 -0.2222 -0.1925
  270POPC   C3A 4686   8.057  10.275   6.236 -0.1161  0.1708  0.1442
  270POPC   C4A 4687   8.012   9.988   6.665  0.0282  0.0524 -0.0493
  270POPC   C1B 4688   7.289  11.661   5.529  0.0612 -0.1099  0.2694
  270POPC   C2B 4689   7.588  12.023   5.854  0.0364 -0.0818  0.1777
  270POPC   D3B 4690   7.974  12.131   5.914  0.1166  0.3875  0.0752
  270POPC   C4B 4691   8.075   0.227   6.361  0.1841 -0.0074 -0.0759
  270POPC   C5B 4692   7.834   0.296   6.732 -0.3467  0.1007  0.1763
  271POPC   NC3 4693   0.480   2.670   5.082  0.2725 -0.1984  0.0937
  271POPC   PO4 4694   0.982   2.447   5.175  0.1311  0.0741 -0.1470
  271POPC   GL1 4695   0.974   2.185   5.529 -0.7476 -0.2543 -0.1107
  271POPC   G1P 4696   1.081   2.271   5.557 -0.6459 -0.3698 -0.1406
  271POPC   G1M 4697   0.964   2.290   5.437  0.3194 -0.1325 -0.1423
  271POPC   GL2 4698   1.092   2.202   5.786  0.0194 -0.1401  0.3434
  271POPC   G2P 4699   1.013   2.255   5.683  0.3959  0.4243  0.3241
  271POPC   G2M 4700   1.020   2.084   5.762  0.0938 -0.0249 -0.6497
  271POPC   C1A 4701   1.037   1.987   6.125 -0.1348 -0.1683  0.0356
  271POPC   C2A 4702   0.730   1.761   6.328  0.2086 -0.2801  0.2065
  271POPC   C3A 4703   0.545   1.629   6.587 -0.1671 -0.4374  0.1651
  271POPC   C4A 4704   0.295   1.603   6.998  0.1324 -0.0059  0.3462
  271POPC   C1B 4705   1.032   1.679   5.708  0.0928  0.1573  0.0202
  271POPC   C2B 4706   0.827   1.394   6.036  0.3171  0.2572  0.0897
  271POPC   D3B 4707   0.726   0.967   5.889 -0.2310  0.0045 -0.0914
  271POPC   C4B 4708   0.260   0.954   5.904  0.0857  0.3113 -0.1822
  271POPC   C5B 4709   0.032   0.929   6.236  0.3417 -0.3244 -0.2165
  272POPC   NC3 4710   1.349   7.827   4.846 -0.1213  0.2329 -0.1601
  272POPC   PO4 4711   1.016   7.364   4.726  0.0077  0.0345  0.0687
  272POPC   GL1 4712   0.984   7.486   5.138 -0.6501 -0.0673 -0.2613
  272POPC   G1P 4713   1.123   7.474   5.149 -0.7273 -0.7580  0.5515
  272POPC   G1M 4714   1.037   7.393   5.047  0.0078 -0.3369  0.3450
  272POPC   GL2 4715   0.736   7.754   5.107  0.1110  0.0993 -0.3125
  272POPC   G2P 4716   0.782   7.866   5.038  0.0911  0.2954 -0.0163
  272POPC   G2M 4717   0.656   7.742   4.993 -0.2815  0.4450 -0.0843
  272POPC   C1A 4718   0.538   7.755   5.475 -0.1284 -0.6060  0.3540
  272POPC   C2A 4719   0.673   7.815   5.920  0.0135 -0.2129 -0.2055
  272POPC   C3A 4720   0.928   8.087   6.227 -0.2167  0.1546 -0.0743
  272POPC   C4A 4721   1.050   8.374   6.568  0.0274 -0.1233 -0.1589
  272POPC   C1B 4722   0.853   7.405   5.520 -0.1210  0.0153  0.1012
  272POPC   C2B 4723   0.794   7.197   5.869  0.3482 -0.2258 -0.0990
  272POPC   D3B 4724   0.679   6.980   6.215 -0.3980  0.2451 -0.0395
  272POPC   C4B 4725   0.775   6.533   6.130  0.1909  0.1181 -0.0994
  272POPC   C5B 4726   0.709   6.274   5.903 -0.2580  0.3263  0.0744
  273POPC   NC3 4727   2.510   7.836   5.539 -0.0965  0.1995 -0.0584
  273POPC   PO4 4728   2.598   8.276   5.275 -0.1130 -0.2365  0.0435
  273POPC   GL1 4729   2.946   8.197   5.607 -0.3426  0.1811  0.2628
  273POPC   G1P 4730   2.944   8.180   5.746  0.0348  0.6369  0.3365
  273POPC   G1M 4731   2.837   8.112   5.628 -0.1687 -0.0391  0.3036
  273POPC   GL2 4732   3.146   7.967   5.629  0.0360 -0.1917 -0.0092
  273POPC   G2P 4733   3.229   8.019   5.529 -0.2927  0.5281  0.0641
  273POPC   G2M 4734   3.062   7.987   5.519 -0.0469  0.3944  0.1473
  273POPC   C1A 4735   3.291   7.717   6.113 -0.0573 -0.3764  0.1482
  273POPC   C2A 4736   3.545   7.358   6.423  0.1197  0.0546  0.1910
  273POPC   C3A 4737   3.775   6.955   6.517  0.0256  0.0539  0.0204
  273POPC   C4A 4738   3.802   6.695   6.811 -0.1096 -0.0821  0.3231
  273POPC   C1B 4739   3.191   8.228   6.033 -0.0466  0.0772  0.0931
  273POPC   C2B 4740   3.158   8.566   6.312 -0.1877 -0.0093  0.0672
  273POPC   D3B 4741   3.261   8.773   6.659  0.0504  0.1590 -0.0105
  273POPC   C4B 4742   3.004   9.044   6.781 -0.2502  0.1788  0.3566
  273POPC   C5B 4743   2.739   9.299   7.014  0.1175 -0.1329  0.1378
  274POPC   NC3 4744  11.604   5.430   5.310 -0.0175 -0.0670  0.0907
  274POPC   PO4 4745  12.123   5.666   5.062 -0.0912 -0.0041  0.0285
  274POPC   GL1 4746  11.972   5.770   5.443  0.6200 -0.6460 -0.5265
  274POPC   G1P 4747  12.050   5.811   5.551 -0.1623  0.1191 -0.1816
  274POPC   G1M 4748  12.021   5.762   5.574 -0.1564 -0.2220 -0.1731
  274POPC   GL2 4749  11.991   6.089   5.451  0.4238 -0.1959 -0.2848
  274POPC   G2P 4750  11.865   6.123   5.402  0.1712 -0.0920  0.3810
  274POPC   G2M 4751  11.905   5.980   5.466  0.0987  0.0466 -0.3371
  274POPC   C1A 4752   0.291   5.883   5.654 -0.0320  0.0720 -0.1508
  274POPC   C2A 4753   0.533   5.762   6.074 -0.0161  0.2185 -0.3595
  274POPC   C3A 4754   0.876   5.496   6.135 -0.1469  0.1686 -0.1952
  274POPC   C4A 4755   1.061   5.137   6.371 -0.2003 -0.0096 -0.0986
  274POPC   C1B 4756  12.014   5.847   5.926  0.0498 -0.1711 -0.0995
  274POPC   C2B 4757  11.942   5.977   6.331  0.1651 -0.0952 -0.0451
  274POPC   D3B 4758  11.838   6.139   6.773 -0.0100 -0.2962 -0.0473
  274POPC   C4B 4759  12.012   5.832   7.053  0.1100  0.2202  0.1626
  274POPC   C5B 4760  12.120   5.444   7.229 -0.0815 -0.0559 -0.0800
  275POPC   NC3 4761  10.704   3.628   4.975 -0.1034 -0.2565  0.1741
  275POPC   PO4 4762  11.194   3.919   4.829 -0.3126 -0.1261  0.2679
  275POPC   GL1 4763  11.051   3.867   5.216  0.3065 -0.0601 -0.1360
  275POPC   G1P 4764  11.110   3.992   5.235 -0.0337  0.0955 -0.0640
  275POPC   G1M 4765  11.162   3.831   5.139  0.4780 -0.5389  0.3051
  275POPC   GL2 4766  11.363   3.825   5.337 -0.1490  0.0084 -0.4643
  275POPC   G2P 4767  11.361   3.897   5.217  0.1131  0.3191 -0.2876
  275POPC   G2M 4768  11.470   3.757   5.279  0.0757 -0.1099  0.0582
  275POPC   C1A 4769  11.091   3.628   5.744  0.0017 -0.0377 -0.0416
  275POPC   C2A 4770  11.418   3.542   6.142 -0.0950 -0.1967  0.1252
  275POPC   C3A 4771  11.812   3.677   6.382 -0.2332  0.0860  0.2078
  275POPC   C4A 4772  11.881   3.732   6.748 -0.1757  0.0881 -0.2710
  275POPC   C1B 4773  10.639   3.782   5.548  0.1002  0.0165  0.2049
  275POPC   C2B 4774  10.275   3.830   5.729 -0.0445  0.2879 -0.1964
  275POPC   D3B 4775   9.816   3.804   5.734  0.0438  0.1042 -0.0914
  275POPC   C4B 4776   9.690   3.760   6.178 -0.0527  0.0843 -0.1918
  275POPC   C5B 4777   9.522   3.482   6.505 -0.0524  0.0187 -0.0920
  276POPC   NC3 4778   3.573   6.410   5.225  0.1180  0.0128  0.1665
  276POPC   PO4 4779   3.370   7.047   5.298  0.0952 -0.1759  0.1047
  276POPC   GL1 4780   3.648   7.243   5.557  0.1111  0.0767 -0.1923
  276POPC   G1P 4781   3.770   7.190   5.516  0.0983 -0.1078 -0.0001
  276POPC   G1M 4782   3.595   7.123   5.508 -0.0778  0.1420 -0.1561
  276POPC   GL2 4783   3.686   7.540   5.845  0.0851  0.1058  0.3140
  276POPC   G2P 4784   3.644   7.661   5.902  0.5484  0.5061 -0.1454
  276POPC   G2M 4785   3.801   7.617   5.866  0.0979  0.0697  0.3777
  276POPC   C1A 4786   4.117   7.611   5.987  0.3422  0.1095  0.0358
  276POPC   C2A 4787   4.461   7.745   6.138 -0.0838 -0.0352  0.0739
  276POPC   C3A 4788   4.509   8.052   6.519  0.0372 -0.3131  0.1185
  276POPC   C4A 4789   4.101   8.058   6.680 -0.0274  0.0176 -0.0785
  276POPC   C1B 4790   4.076   7.141   5.856  0.1230 -0.1704 -0.0350
  276POPC   C2B 4791   4.201   7.115   6.305  0.1767  0.0420 -0.0758
  276POPC   D3B 4792   4.359   6.855   6.562  0.0168 -0.0698 -0.2205
  276POPC   C4B 4793   4.630   7.117   6.778 -0.0262  0.0723 -0.0187
  276POPC   C5B 4794   5.100   7.150   6.754 -0.2130  0.1788  0.0424
  277POPC   NC3 4795   5.516   9.855   5.250  0.0939 -0.2163  0.0199
  277POPC   PO4 4796   5.005   9.742   5.058  0.1139 -0.1023 -0.2084
  277POPC   GL1 4797   4.989   9.690   5.515  0.0671 -0.3740 -0.3178
  277POPC   G1P 4798   4.897   9.769   5.586 -0.0610 -0.5037 -0.3371
  277POPC   G1M 4799   4.876   9.632   5.456 -0.3488 -0.1858  0.2483
  277POPC   GL2 4800   4.916   9.950   5.756 -0.6070 -0.1072  0.3585
  277POPC   G2P 4801   4.827   9.845   5.779 -0.3943 -0.3428  0.1285
  277POPC   G2M 4802   4.885   9.977   5.890  0.1169 -0.1244  0.5478
  277POPC   C1A 4803   4.812  10.091   6.221  0.0673 -0.1344  0.1426
  277POPC   C2A 4804   4.757  10.116   6.682 -0.4275  0.0146 -0.1742
  277POPC   C3A 4805   4.511   9.936   6.961 -0.2439  0.0105  0.3994
  277POPC   C4A 4806   4.540   9.923   7.438  0.0068  0.0955 -0.3491
  277POPC   C1B 4807   5.115   9.419   5.920 -0.2303  0.2566  0.1285
  277POPC   C2B 4808   5.318   9.055   6.157 -0.0721 -0.1178 -0.1701
  277POPC   D3B 4809   5.255   9.007   6.636  0.1663 -0.3223  0.1916
  277POPC   C4B 4810   5.572   9.146   6.841  0.0503 -0.0811  0.0156
  277POPC   C5B 4811   5.966   9.301   6.906  0.3027 -0.0109 -0.1062
  278POPC   NC3 4812  10.347   5.555   4.825  0.2877 -0.0631  0.1237
  278POPC   PO4 4813  10.877   5.731   4.979  0.1561 -0.1840  0.4741
  278POPC   GL1 4814  10.989   5.809   5.416  0.0378  0.6844 -0.2762
  278POPC   G1P 4815  11.127   5.802   5.393  0.0745  0.5266 -0.0292
  278POPC   G1M 4816  10.955   5.860   5.291 -0.4769  0.0825 -0.4080
  278POPC   GL2 4817  10.706   5.592   5.633  0.4644 -0.2676 -0.1211
  278POPC   G2P 4818  10.779   5.712   5.632  0.6343 -0.3693 -0.1753
  278POPC   G2M 4819  10.575   5.618   5.590  0.5375  0.0169 -0.1854
  278POPC   C1A 4820  10.570   5.126   5.770 -0.0081 -0.1442  0.2549
  278POPC   C2A 4821  10.737   4.758   5.863  0.0778 -0.1164  0.1362
  278POPC   C3A 4822  10.971   4.438   5.990  0.2639  0.0019  0.1186
  278POPC   C4A 4823  11.220   4.134   5.735 -0.1371 -0.0904 -0.0438
  278POPC   C1B 4824  11.278   5.613   5.665  0.0486 -0.0051  0.2187
  278POPC   C2B 4825  11.701   5.471   5.790  0.2506 -0.0453  0.1189
  278POPC   D3B 4826  11.801   5.166   6.140  0.3171  0.0483 -0.1646
  278POPC   C4B 4827   0.027   4.884   6.156 -0.2511 -0.1222 -0.0476
  278POPC   C5B 4828   0.321   4.423   6.078  0.0970 -0.2229 -0.2042
  279POPC   NC3 4829   4.449   4.896   5.250 -0.3574 -0.0936 -0.1607
  279POPC   PO4 4830   3.975   4.560   5.316  0.1371 -0.1296 -0.1498
  279POPC   GL1 4831   3.776   4.416   5.698 -0.0189  0.1467 -0.0138
  279POPC   G1P 4832   3.891   4.405   5.776 -0.1140 -0.2699  0.0768
  279POPC   G1M 4833   3.890   4.433   5.619 -0.0771 -0.0227 -0.1366
  279POPC   GL2 4834   3.863   4.152   5.793  0.0383  0.0138 -0.3700
  279POPC   G2P 4835   3.954   4.254   5.762  0.2873 -0.1229 -0.1053
  279POPC   G2M 4836   3.941   4.068   5.712 -0.0386 -0.1751 -0.2503
  279POPC   C1A 4837   4.028   4.208   6.213 -0.0676 -0.1559 -0.5786
  279POPC   C2A 4838   3.835   4.209   6.702 -0.1299 -0.2159  0.3850
  279POPC   C3A 4839   3.583   4.530   6.691 -0.4896  0.1624 -0.0007
  279POPC   C4A 4840   3.640   4.971   6.472  0.1045 -0.2227  0.0085
  279POPC   C1B 4841   3.650   4.581   6.162  0.2973  0.3595 -0.0115
  279POPC   C2B 4842   3.264   4.658   6.296  0.2376  0.1249 -0.0412
  279POPC   D3B 4843   3.184   4.274   6.605 -0.1204  0.2833 -0.0658
  279POPC   C4B 4844   3.393   4.091   6.965 -0.0447 -0.1384  0.0402
  279POPC   C5B 4845   3.379   4.478   7.257 -0.2026  0.2733 -0.2472
  280POPC   NC3 4846   3.644   9.543   4.881  0.1025  0.1055 -0.1151
  280POPC   PO4 4847   3.822   9.196   5.291  0.0991 -0.1521  0.0434
  280POPC   GL1 4848   3.955   8.937   5.620  0.2099  0.0167 -0.5231
  280POPC   G1P 4849   3.899   8.809   5.616 -0.1027  0.1432 -0.3786
  280POPC   G1M 4850   3.883   8.989   5.511 -0.0132 -0.0179 -0.3960
  280POPC   GL2 4851   4.280   9.019   5.796 -0.1568  0.2399  0.1498
  280POPC   G2P 4852   4.326   8.942   5.903  0.3346 -0.2229 -0.3588
  280POPC   G2M 4853   4.268   9.102   5.908 -0.4208  0.1460  0.1939
  280POPC   C1A 4854   3.975   8.957   6.158  0.0996  0.0577  0.0270
  280POPC   C2A 4855   3.845   9.071   6.579  0.0113 -0.0698  0.1298
  280POPC   C3A 4856   3.663   8.803   6.909  0.1722  0.2190 -0.0214
  280POPC   C4A 4857   3.542   8.830   7.305  0.0858 -0.1122  0.0523
  280POPC   C1B 4858   3.713   8.558   5.902 -0.2158 -0.1412  0.2769
  280POPC   C2B 4859   3.621   8.412   6.172 -0.0789 -0.1385  0.2203
  280POPC   D3B 4860   3.684   8.384   6.576 -0.1374 -0.2410 -0.0476
  280POPC   C4B 4861   3.372   8.318   6.906  0.0317 -0.1831  0.2112
  280POPC   C5B 4862   3.160   8.479   7.305  0.0684  0.1103  0.0721
  281POPC   NC3 4863   8.499   3.657   4.737  0.1196  0.1750  0.0246
  281POPC   PO4 4864   8.601   3.785   5.422 -0.0140  0.0183  0.3071
  281POPC   GL1 4865   8.795   3.655   5.795  0.0279 -0.1554 -0.0092
  281POPC   G1P 4866   8.773   3.537   5.867  0.0512 -0.1631 -0.0146
  281POPC   G1M 4867   8.666   3.640   5.743  0.0400  0.5522 -0.3077
  281POPC   GL2 4868   9.064   3.870   5.758  0.0083 -0.0619 -0.1915
  281POPC   G2P 4869   8.970   3.774   5.798 -0.0614  0.0847  0.0038
  281POPC   G2M 4870   8.978   3.890   5.650  0.2099  0.3012 -0.2925
  281POPC   C1A 4871   9.376   4.082   6.014 -0.2415 -0.5576  0.0864
  281POPC   C2A 4872   9.603   4.261   6.242  0.0534  0.0993  0.2444
  281POPC   C3A 4873   9.741   4.180   6.558 -0.0027  0.0645  0.0312
  281POPC   C4A 4874  10.114   4.072   6.754 -0.0645 -0.0799 -0.3469
  281POPC   C1B 4875   8.775   4.000   6.192  0.0935 -0.0033  0.0912
  281POPC   C2B 4876   8.756   4.099   6.734  0.4970 -0.0661 -0.0705
  281POPC   D3B 4877   8.775   3.822   6.947  0.1100  0.0588  0.2621
  281POPC   C4B 4878   9.147   3.711   7.122 -0.0388 -0.0715  0.0964
  281POPC   C5B 4879   9.457   3.304   6.948 -0.2352  0.1253 -0.1104
  282POPC   NC3 4880   8.015   0.107   5.386 -0.0096 -0.3218  0.2096
  282POPC   PO4 4881   8.264   0.385   5.039 -0.1871 -0.0737 -0.3758
  282POPC   GL1 4882   8.515   0.285   5.390  0.3315 -0.5312  0.1829
  282POPC   G1P 4883   8.636   0.238   5.441  0.5130  0.0016  0.2770
  282POPC   G1M 4884   8.562   0.355   5.502  0.0019  0.2735 -0.1420
  282POPC   GL2 4885   8.779   0.181   5.224 -0.4719 -0.1928 -0.1404
  282POPC   G2P 4886   8.740   0.245   5.342  0.1613  0.4670 -0.2534
  282POPC   G2M 4887   8.914   0.164   5.256 -0.5284  0.5212  0.6289
  282POPC   C1A 4888   9.032   0.206   5.608 -0.0355 -0.2437 -0.0737
  282POPC   C2A 4889   9.157   0.597   5.829 -0.0159  0.0492 -0.1569
  282POPC   C3A 4890   9.032   0.586   6.207  0.1994 -0.0090  0.1995
  282POPC   C4A 4891   8.902   0.476   6.613  0.2589  0.1999  0.0752
  282POPC   C1B 4892   8.619   0.316   5.865 -0.1611 -0.2050 -0.2387
  282POPC   C2B 4893   8.522   0.252   6.365 -0.0780 -0.2950 -0.3252
  282POPC   D3B 4894   8.432   0.225   6.808  0.1739  0.3232 -0.0163
  282POPC   C4B 4895   8.539  11.981   7.068  0.0429 -0.0545 -0.0273
  282POPC   C5B 4896   8.541  11.827   7.541 -0.0401  0.0065 -0.0672
  283POPC   NC3 4897   0.818  11.220   5.267 -0.1403 -0.1386 -0.1316
  283POPC   PO4 4898   0.276  11.331   5.060 -0.0452  0.1477  0.2219
  283POPC   GL1 4899   0.087  11.464   5.473  0.3410 -0.1462  0.1360
  283POPC   G1P 4900  -0.018  11.548   5.434  0.2685 -0.4719 -0.4213
  283POPC   G1M 4901   0.118  11.435   5.339 -0.0006  0.5702 -0.1265
  283POPC   GL2 4902   0.278  11.374   5.648 -0.0807  0.1682 -0.0845
  283POPC   G2P 4903   0.174  11.304   5.586 -0.0659 -0.1747  0.2526
  283POPC   G2M 4904   0.256  11.247   5.594  0.0350  0.0167  0.2116
  283POPC   C1A 4905   0.351  11.253   6.140 -0.2122  0.0553 -0.1272
  283POPC   C2A 4906   0.452  11.387   6.567  0.0285  0.1891  0.0077
  283POPC   C3A 4907   0.544  11.691   6.914  0.3490  0.1691 -0.1954
  283POPC   C4A 4908   0.909  11.585   7.047  0.0477  0.2968  0.1586
  283POPC   C1B 4909  11.966  11.611   5.801  0.1183 -0.3692 -0.0912
  283POPC   C2B 4910  11.667  12.022   5.864  0.2600  0.0404 -0.1770
  283POPC   D3B 4911  11.563   0.173   6.165 -0.3038  0.1166 -0.1816
  283POPC   C4B 4912  11.246   0.440   5.990  0.0235  0.0046 -0.0268
  283POPC   C5B 4913  10.908   0.666   6.111  0.2113  0.0002 -0.0733
  284POPC   NC3 4914   3.129  10.439   4.489 -0.1999  0.2266  0.0853
  284POPC   PO4 4915   2.933  10.699   5.026  0.1726  0.2695  0.1374
  284POPC   GL1 4916   2.695  10.757   5.457  0.0556 -0.4711  0.1585
  284POPC   G1P 4917   2.741  10.705   5.578  0.1823 -0.5015  0.0973
  284POPC   G1M 4918   2.639  10.670   5.363  0.1166  0.0665 -0.4140
  284POPC   GL2 4919   2.788  11.042   5.433 -0.0729  0.1175 -0.1572
  284POPC   G2P 4920   2.807  10.994   5.302 -0.5155  0.3622 -0.3219
  284POPC   G2M 4921   2.922  11.065   5.402  0.0013  0.0028  0.0714
  284POPC   C1A 4922   2.613  11.437   5.685  0.1350  0.1430 -0.1529
  284POPC   C2A 4923   2.364  11.588   5.984 -0.0786  0.2378 -0.3644
  284POPC   C3A 4924   2.114  11.567   6.255  0.0730  0.0630  0.1837
  284POPC   C4A 4925   1.858  11.329   6.492  0.3990 -0.3093 -0.2011
  284POPC   C1B 4926   2.646  10.778   5.905  0.1423  0.0967 -0.0024
  284POPC   C2B 4927   2.441  10.598   6.217 -0.1748 -0.0734  0.1720
  284POPC   D3B 4928   2.102  10.385   6.302  0.3239  0.1996 -0.1398
  284POPC   C4B 4929   1.764  10.133   6.079  0.1783 -0.1311 -0.2090
  284POPC   C5B 4930   1.488   9.726   6.174  0.0053  0.0143  0.0055
  285POPC   NC3 4931   0.931   5.081   4.397 -0.3934  0.2975 -0.0916
  285POPC   PO4 4932   1.283   5.224   4.739  0.1936  0.1988 -0.1788
  285POPC   GL1 4933   1.271   5.130   5.231  0.1017  0.3382  0.3081
  285POPC   G1P 4934   1.155   5.188   5.285 -0.4474 -0.1620 -0.2637
  285POPC   G1M 4935   1.215   5.189   5.117  0.0364 -0.0073  0.1554
  285POPC   GL2 4936   1.317   4.784   5.376 -0.1087 -0.1526 -0.0300
  285POPC   G2P 4937   1.404   4.721   5.286  0.2937  0.0043  0.2329
  285POPC   G2M 4938   1.428   4.804   5.293 -0.3360  0.4761 -0.2123
  285POPC   C1A 4939   1.356   5.006   5.700  0.0647  0.1105 -0.1274
  285POPC   C2A 4940   1.311   5.338   5.977  0.0345 -0.3857 -0.0782
  285POPC   C3A 4941   1.382   5.604   6.319  0.0914  0.3193  0.1653
  285POPC   C4A 4942   1.466   6.030   6.509  0.2441 -0.0957 -0.1649
  285POPC   C1B 4943   0.887   5.101   5.500  0.2704  0.1025  0.0607
  285POPC   C2B 4944   0.887   5.017   5.938  0.1119  0.2948 -0.1024
  285POPC   D3B 4945   1.307   4.793   6.117 -0.0640  0.1288  0.3435
  285POPC   C4B 4946   1.393   4.509   5.846  0.0317  0.0043  0.0068
  285POPC   C5B 4947   1.490   4.205   5.430  0.1947 -0.5928 -0.0024
  286POPC   NC3 4948   2.919   7.092   5.190  0.1758  0.2632 -0.1654
  286POPC   PO4 4949   2.636   6.571   5.038  0.2507  0.2164  0.1332
  286POPC   GL1 4950   2.691   6.674   5.482  0.2161 -0.7348  0.1160
  286POPC   G1P 4951   2.803   6.720   5.551 -0.1601 -0.2927  0.4607
  286POPC   G1M 4952   2.776   6.780   5.446 -0.4774 -0.0721  0.2930
  286POPC   GL2 4953   2.832   6.488   5.776  0.1036  0.5800 -0.1999
  286POPC   G2P 4954   2.816   6.448   5.642 -0.0098 -0.2483  0.0314
  286POPC   G2M 4955   2.758   6.534   5.666 -0.0429  0.0657 -0.3329
  286POPC   C1A 4956   3.157   6.314   5.980  0.3097  0.1006  0.0858
  286POPC   C2A 4957   3.595   6.312   5.906 -0.0724  0.1743 -0.2276
  286POPC   C3A 4958   3.843   6.589   5.667  0.0590  0.2055 -0.3205
  286POPC   C4A 4959   4.317   6.468   5.675  0.1432 -0.1473 -0.0750
  286POPC   C1B 4960   2.851   6.956   5.812  0.0648  0.1023 -0.0887
  286POPC   C2B 4961   3.262   7.153   5.912  0.0123  0.2498 -0.1956
  286POPC   D3B 4962   3.619   6.872   6.008 -0.2574 -0.2646 -0.3562
  286POPC   C4B 4963   3.450   6.570   6.340 -0.0746 -0.0522  0.0093
  286POPC   C5B 4964   3.350   6.060   6.423 -0.1086 -0.0879  0.1427
  287POPC   NC3 4965   2.452   7.998   4.943  0.1506  0.0470  0.1964
  287POPC   PO4 4966   2.158   7.645   5.245 -0.2743  0.0554 -0.1713
  287POPC   GL1 4967   2.173   7.408   5.617  0.0812 -0.1405  0.0762
  287POPC   G1P 4968   2.247   7.306   5.678  0.5128  0.1711  0.0892
  287POPC   G1M 4969   2.292   7.480   5.609 -0.0869  0.2092  0.4837
  287POPC   GL2 4970   2.366   7.161   5.792  0.0059 -0.2030 -0.0262
  287POPC   G2P 4971   2.285   7.243   5.871  0.2452 -0.1158  0.1357
  287POPC   G2M 4972   2.279   7.079   5.865  0.1128 -0.3933 -0.1097
  287POPC   C1A 4973   2.201   7.094   6.210  0.1547 -0.0468 -0.2551
  287POPC   C2A 4974   1.860   7.204   6.529  0.0102 -0.0400  0.4488
  287POPC   C3A 4975   1.539   7.255   6.826  0.0196  0.1778  0.2267
  287POPC   C4A 4976   1.305   7.089   7.228  0.0733 -0.1316  0.0306
  287POPC   C1B 4977   1.883   7.163   5.883 -0.0345 -0.0656 -0.1432
  287POPC   C2B 4978   1.665   6.989   6.154  0.0495  0.0067  0.0592
  287POPC   D3B 4979   1.261   6.867   6.275 -0.2416 -0.0915  0.0504
  287POPC   C4B 4980   1.063   7.268   6.284 -0.1527  0.1245 -0.1850
  287POPC   C5B 4981   0.675   7.571   6.360  0.0482  0.2264 -0.1004
  288POPS   CNO 4982  11.338   6.880   5.162 -0.1856 -0.1948  0.1480
  288POPS   CNP 4983  11.303   6.685   5.189  0.2155 -0.2356  0.4219
  288POPS   CNM 4984  11.403   7.060   5.106 -0.6984 -0.1663 -0.4084
  288POPS   PO4 4985  11.076   7.098   5.101 -0.0028 -0.1011  0.2134
  288POPS   GL1 4986  11.016   7.322   5.333  0.1958  0.0406  0.1889
  288POPS   G1P 4987  11.023   7.456   5.292  0.4615 -0.0231  0.0093
  288POPS   G1M 4988  10.965   7.312   5.203 -0.0962 -0.2010  0.3183
  288POPS   GL2 4989  11.294   7.344   5.466 -0.3116 -0.0459  0.4197
  288POPS   G2P 4990  11.230   7.221   5.449 -0.6182  0.1996 -0.4792
  288POPS   G2M 4991  11.413   7.288   5.513  0.0016  0.2211 -0.0167
  288POPS   C1A 4992  11.160   7.709   5.756 -0.0461  0.1211  0.0605
  288POPS   C2A 4993  11.064   8.096   5.962  0.1476 -0.0681  0.2071
  288POPS   C3A 4994  10.634   8.223   6.024 -0.0021  0.0078  0.4540
  288POPS   C4A 4995  10.319   8.483   6.273  0.1827  0.1674  0.0886
  288POPS   C1B 4996  10.820   7.353   5.714  0.3336 -0.2435 -0.0051
  288POPS   C2B 4997  11.121   7.224   6.012  0.0295 -0.0370 -0.0365
  288POPS   D3B 4998  11.521   7.212   5.978  0.0188  0.2156 -0.0798
  288POPS   C4B 4999  11.639   7.107   6.347  0.0326 -0.0849  0.0865
  288POPS   C5B 5000  11.567   7.053   6.771 -0.1295 -0.1936  0.0802
  289POPS   CNO 5001  10.402   7.441   4.839 -0.0173  0.0897  0.2792
  289POPS   CNP 5002  10.370   7.571   4.689 -0.4540 -0.4074 -0.0806
  289POPS   CNM 5003  10.258   7.383   4.965  0.0425 -0.2838  0.1830
  289POPS   PO4 5004  10.453   7.341   5.179  0.1869 -0.1374  0.0734
  289POPS   GL1 5005  10.318   7.496   5.392 -0.0115  0.2351 -0.2792
  289POPS   G1P 5006  10.437   7.530   5.457 -0.0778 -0.2801  0.1474
  289POPS   G1M 5007  10.413   7.424   5.318  0.2400  0.1547  0.1084
  289POPS   GL2 5008  10.295   7.369   5.661 -0.0470 -0.2959 -0.4082
  289POPS   G2P 5009  10.382   7.478   5.675 -0.6254  0.1435  0.0329
  289POPS   G2M 5010  10.340   7.496   5.623  0.1734 -0.4343 -0.6205
  289POPS   C1A 5011  10.283   7.473   6.051  0.0771  0.2329  0.0764
  289POPS   C2A 5012  10.215   7.416   6.479  0.0349 -0.0034  0.0021
  289POPS   C3A 5013  10.280   7.241   6.894 -0.0720 -0.0541 -0.2657
  289POPS   C4A 5014  10.004   6.797   7.041 -0.1528 -0.5197  0.0177
  289POPS   C1B 5015  10.019   7.790   5.594 -0.1705  0.0667  0.1045
  289POPS   C2B 5016   9.777   7.627   5.927 -0.1037 -0.2685  0.0298
  289POPS   D3B 5017   9.340   7.651   6.044  0.0524  0.1014 -0.1827
  289POPS   C4B 5018   9.186   7.421   6.439  0.0282 -0.1611 -0.1772
  289POPS   C5B 5019   8.892   7.180   6.778 -0.0239  0.4425 -0.2452
  290POPS   CNO 5020   4.350   9.808   5.203 -0.0107  0.2937 -0.3307
  290POPS   CNP 5021   4.204   9.854   5.073 -0.2670  0.1191 -0.1105
  290POPS   CNM 5022   4.493   9.671   5.230 -0.1213  0.2928  0.3308
  290POPS   PO4 5023   4.366   9.797   5.412  0.0988 -0.0743 -0.2682
  290POPS   GL1 5024   4.366   9.896   5.713 -0.6052  0.2376 -0.3860
  290POPS   G1P 5025   4.411  10.022   5.752 -0.1925  0.1231 -0.4666
  290POPS   G1M 5026   4.419   9.946   5.594 -0.2757  0.0463 -0.3254
  290POPS   GL2 5027   4.403  10.178   5.781  0.1602 -0.2280 -0.1528
  290POPS   G2P 5028   4.445  10.291   5.710 -0.2527 -0.0672 -0.1545
  290POPS   G2M 5029   4.522  10.251   5.789 -0.0606  0.1654 -0.3177
  290POPS   C1A 5030   4.357  10.455   6.061  0.1054 -0.1502  0.1994
  290POPS   C2A 5031   4.107  10.922   6.178  0.0792 -0.0056 -0.1742
  290POPS   C3A 5032   4.126  11.347   6.308 -0.1316  0.0074  0.2417
  290POPS   C4A 5033   4.066  11.791   6.137 -0.1545  0.3805 -0.1312
  290POPS   C1B 5034   4.188   9.929   6.149  0.0181  0.1754 -0.2224
  290POPS   C2B 5035   4.234   9.731   6.566  0.0941  0.1058 -0.2237
  290POPS   D3B 5036   4.718   9.646   6.606 -0.3827  0.2755  0.0234
  290POPS   C4B 5037   5.192   9.788   6.385 -0.1112  0.1380 -0.3126
  290POPS   C5B 5038   5.552   9.698   6.064  0.1275 -0.0750 -0.2363
  291POPS   CNO 5039   5.891   8.176   5.006 -0.2667 -0.1641 -0.1830
  291POPS   CNP 5040   5.726   8.226   5.107  0.2640  0.4461  0.4327
  291POPS   CNM 5041   6.060   8.070   4.984  0.1740  0.4430  0.1135
  291POPS   PO4 5042   6.275   8.359   4.966  0.2310 -0.0062  0.1618
  291POPS   GL1 5043   6.324   8.334   5.303 -0.4049 -0.0342  0.4474
  291POPS   G1P 5044   6.334   8.471   5.331 -0.1589  0.0326  0.0618
  291POPS   G1M 5045   6.461   8.323   5.329 -0.1649 -0.0097 -0.5850
  291POPS   GL2 5046   6.683   8.215   5.384 -0.1903 -0.2219  0.8743
  291POPS   G2P 5047   6.545   8.238   5.389 -0.1770  0.0709  0.3535
  291POPS   G2M 5048   6.632   8.095   5.334  0.4019  0.0157 -0.5719
  291POPS   C1A 5049   6.869   8.519   5.612  0.2323  0.3038 -0.1059
  291POPS   C2A 5050   7.120   8.463   6.002 -0.0588 -0.3088 -0.0553
  291POPS   C3A 5051   7.421   8.541   6.328  0.3834 -0.1929 -0.0548
  291POPS   C4A 5052   7.634   8.438   6.699 -0.0050  0.3613 -0.0855
  291POPS   C1B 5053   6.143   8.422   5.711  0.2010 -0.0304 -0.0921
  291POPS   C2B 5054   6.165   8.208   6.102  0.1640  0.0156 -0.4467
  291POPS   D3B 5055   6.342   8.030   6.364 -0.2262  0.2413  0.1711
  291POPS   C4B 5056   6.653   7.802   6.109 -0.3174 -0.1006  0.1284
  291POPS   C5B 5057   6.676   7.525   5.640  0.2189 -0.0223  0.2506
  292POPS   CNO 5058   9.132   7.938   4.636 -0.1156  0.3856  0.2831
  292POPS   CNP 5059   9.069   7.955   4.447 -0.4388  0.5335  0.4011
  292POPS   CNM 5060   9.035   7.797   4.739  0.4429 -0.0301  0.2678
  292POPS   PO4 5061   9.103   8.023   5.050 -0.0242  0.3028 -0.4239
  292POPS   GL1 5062   9.102   7.937   5.438 -0.0203 -0.2875  0.3125
  292POPS   G1P 5063   9.071   8.056   5.506 -0.0444 -0.0491 -0.0955
  292POPS   G1M 5064   9.098   8.035   5.337 -0.1031  0.2069  0.7701
  292POPS   GL2 5065   9.385   7.820   5.604  0.0579  0.0770  0.2666
  292POPS   G2P 5066   9.413   7.753   5.484 -0.0913  0.2549  0.1314
  292POPS   G2M 5067   9.451   7.703   5.646  0.0621 -0.0251 -0.0140
  292POPS   C1A 5068   9.704   8.167   5.803 -0.0556  0.1920  0.5269
  292POPS   C2A 5069   9.836   8.362   6.151 -0.0476 -0.1963  0.2416
  292POPS   C3A 5070   9.967   8.438   6.568  0.0495 -0.0205  0.1249
  292POPS   C4A 5071  10.187   8.494   6.933  0.2998 -0.1013 -0.1983
  292POPS   C1B 5072   9.048   8.171   5.846  0.1924 -0.1735  0.2983
  292POPS   C2B 5073   9.079   8.563   6.234 -0.0988  0.0076 -0.1870
  292POPS   D3B 5074   8.934   8.916   6.343  0.0663 -0.0053 -0.2400
  292POPS   C4B 5075   8.664   9.180   6.610 -0.2964 -0.0210 -0.0122
  292POPS   C5B 5076   8.516   9.587   6.515 -0.0450  0.0571 -0.1801
  293POPS   CNO 5077  11.730   5.884   5.005 -0.0520 -0.2618  0.0465
  293POPS   CNP 5078  11.870   5.743   5.031  0.0967 -0.2056 -0.4068
  293POPS   CNM 5079  11.666   6.060   5.075 -0.4410 -0.3698 -0.0255
  293POPS   PO4 5080  11.492   5.864   5.233 -0.1905  0.0443 -0.3885
  293POPS   GL1 5081  11.497   6.035   5.513 -0.1022 -0.5155  0.0810
  293POPS   G1P 5082  11.493   6.159   5.448 -0.3591 -0.4837  0.1509
  293POPS   G1M 5083  11.457   6.040   5.379 -0.0998 -0.0005  0.0885
  293POPS   GL2 5084  11.614   6.390   5.587 -0.0370 -0.0244 -0.0690
  293POPS   G2P 5085  11.694   6.502   5.610  0.1605 -0.1289 -0.2351
  293POPS   G2M 5086  11.530   6.488   5.532 -0.2471  0.0396  0.3440
  293POPS   C1A 5087  11.844   6.367   5.981  0.2485  0.0964 -0.0996
  293POPS   C2A 5088  11.872   6.512   6.277 -0.0569  0.3049 -0.2240
  293POPS   C3A 5089  11.567   6.527   6.604  0.2668 -0.4144 -0.0910
  293POPS   C4A 5090  11.231   6.649   6.766 -0.0264 -0.1608 -0.0361
  293POPS   C1B 5091  11.497   5.952   5.948 -0.1190  0.0089  0.0403
  293POPS   C2B 5092  11.474   6.025   6.449  0.1095 -0.0090 -0.1322
  293POPS   D3B 5093  11.281   6.152   6.794  0.1473 -0.1246  0.1337
  293POPS   C4B 5094  11.526   6.264   7.128  0.2669  0.1794 -0.3470
  293POPS   C5B 5095  12.055   6.311   7.311  0.2999 -0.2332  0.0927
  294POPS   CNO 5096   0.489   0.081   5.286  0.1214 -0.2685 -0.3739
  294POPS   CNP 5097   0.672   0.029   5.225  0.4179  0.1238  0.1404
  294POPS   CNM 5098   0.301   0.140   5.320  0.3338  0.1132  0.2251
  294POPS   PO4 5099   0.357   0.402   5.422 -0.0899 -0.0665  0.3465
  294POPS   GL1 5100   0.431   0.311   5.756  0.1178  0.1944 -0.1080
  294POPS   G1P 5101   0.364   0.188   5.745  0.1851  0.1489 -0.0179
  294POPS   G1M 5102   0.311   0.330   5.686  0.0915 -0.1826 -0.1782
  294POPS   GL2 5103   0.608   0.549   6.025 -0.0318  0.0231  0.1919
  294POPS   G2P 5104   0.628   0.647   5.928  0.4504 -0.3203 -0.0754
  294POPS   G2M 5105   0.533   0.656   6.075  0.3262  0.4113 -0.0780
  294POPS   C1A 5106   0.656   0.370   6.366 -0.1934  0.0373  0.0112
  294POPS   C2A 5107   0.433   0.128   6.593  0.0196  0.0064 -0.2676
  294POPS   C3A 5108   0.164   0.058   6.905 -0.0555  0.1792 -0.1360
  294POPS   C4A 5109   0.139  11.832   7.152  0.0618 -0.1972 -0.0390
  294POPS   C1B 5110   0.366   0.042   6.117  0.0798 -0.1171 -0.0909
  294POPS   C2B 5111  12.026  12.121   6.244 -0.1908  0.1853  0.2375
  294POPS   D3B 5112  11.666  11.917   6.470 -0.2239  0.3123  0.1122
  294POPS   C4B 5113  11.415  11.601   6.691  0.1861  0.0003 -0.1474
  294POPS   C5B 5114  11.310  11.429   7.138  0.0431  0.0481  0.1472
  295POPS   CNO 5115  10.639   7.000   5.462 -0.0128 -0.1495 -0.0691
  295POPS   CNP 5116  10.558   7.135   5.339  0.0356 -0.1524 -0.1044
  295POPS   CNM 5117  10.755   6.855   5.387 -0.2386 -0.4143  0.0835
  295POPS   PO4 5118  10.494   6.594   5.322 -0.1142  0.1351  0.0446
  295POPS   GL1 5119  10.628   6.485   5.579  0.1165 -0.2223 -0.3556
  295POPS   G1P 5120  10.726   6.575   5.535  0.1700  0.2870  0.6775
  295POPS   G1M 5121  10.594   6.523   5.449  0.2976  0.2652 -0.2703
  295POPS   GL2 5122  10.632   6.106   5.624  0.4264 -0.1346 -0.1230
  295POPS   G2P 5123  10.585   6.010   5.713  0.4124 -0.1274 -0.1225
  295POPS   G2M 5124  10.733   6.009   5.624  0.2179 -0.3555 -0.0885
  295POPS   C1A 5125  10.593   6.161   6.144  0.0674 -0.3942  0.0375
  295POPS   C2A 5126  10.476   6.441   6.529 -0.1056 -0.0479  0.2469
  295POPS   C3A 5127  10.129   6.597   6.602 -0.2642 -0.0361  0.0151
  295POPS   C4A 5128   9.722   6.550   6.693  0.1104 -0.0735  0.0605
  295POPS   C1B 5129  10.835   6.550   5.971  0.0401 -0.2503  0.3944
  295POPS   C2B 5130  10.922   6.811   6.249 -0.0213  0.2058 -0.0153
  295POPS   D3B 5131  11.165   7.157   6.487  0.0248 -0.2495 -0.1570
  295POPS   C4B 5132  11.070   7.184   6.891  0.1280 -0.1007 -0.0555
  295POPS   C5B 5133  10.987   7.497   7.165  0.0649 -0.0338  0.3207
  296POPS   CNO 5134   0.471   7.943   4.674  0.0520 -0.2904 -0.1208
  296POPS   CNP 5135   0.650   7.888   4.603  0.0449 -0.4465 -0.0185
  296POPS   CNM 5136   0.298   7.957   4.773 -0.0280 -0.4606 -0.2347
  296POPS   PO4 5137   0.261   8.318   4.696  0.0232 -0.1651  0.3871
  296POPS   GL1 5138   0.248   8.415   5.003 -0.1495 -0.1109  0.2284
  296POPS   G1P 5139   0.154   8.498   5.065  0.1107  0.3040  0.0938
  296POPS   G1M 5140   0.222   8.536   4.937  0.3383 -0.2499 -0.2613
  296POPS   GL2 5141   0.428   8.148   5.137 -0.2875 -0.2322 -0.1971
  296POPS   G2P 5142   0.550   8.202   5.093 -0.3398  0.3291  0.2815
  296POPS   G2M 5143   0.453   8.241   5.035 -0.5388  0.3285  0.2297
  296POPS   C1A 5144   0.803   8.186   5.479 -0.1206  0.2852  0.1043
  296POPS   C2A 5145   1.119   7.881   5.631  0.4010 -0.1456  0.0399
  296POPS   C3A 5146   1.207   7.696   6.031 -0.1227 -0.0511  0.1711
  296POPS   C4A 5147   1.476   7.505   6.307 -0.2165  0.0146 -0.5547
  296POPS   C1B 5148   0.519   8.636   5.436  0.0787 -0.0484 -0.2047
  296POPS   C2B 5149   0.600   8.603   5.779  0.2335  0.0031  0.0495
  296POPS   D3B 5150   0.615   8.502   6.218 -0.0886  0.0735 -0.3450
  296POPS   C4B 5151   0.468   8.743   6.555 -0.1121 -0.0249 -0.4268
  296POPS   C5B 5152   0.336   8.793   7.008 -0.4103  0.2486  0.1165
  297POPS   CNO 5153  10.145   6.821   5.152  0.4505 -0.0091 -0.0263
  297POPS   CNP 5154  10.284   6.706   5.239  0.0405 -0.2298  0.3553
  297POPS   CNM 5155  10.102   6.999   5.073  0.1312 -0.1398 -0.1593
  297POPS   PO4 5156   9.779   6.960   5.127  0.1491 -0.0081 -0.1024
  297POPS   GL1 5157   9.931   7.071   5.510 -0.0275  0.1668 -0.4743
  297POPS   G1P 5158  10.056   7.016   5.540 -0.1372  0.4285  0.6928
  297POPS   G1M 5159  10.011   7.129   5.410  0.0302  0.4948 -0.2453
  297POPS   GL2 5160  10.212   6.813   5.697 -0.1398  0.0376 -0.0273
  297POPS   G2P 5161  10.259   6.685   5.728  0.3802  0.2810  0.2512
  297POPS   G2M 5162  10.291   6.790   5.810 -0.4127 -0.0515  0.1486
  297POPS   C1A 5163  10.186   6.500   6.074 -0.0943 -0.0478 -0.2787
  297POPS   C2A 5164  10.195   6.104   6.378 -0.3568  0.0927  0.0179
  297POPS   C3A 5165  10.197   6.212   6.909 -0.1910 -0.3061  0.1898
  297POPS   C4A 5166  10.447   6.104   7.197 -0.3271 -0.2034  0.1706
  297POPS   C1B 5167   9.877   7.157   5.934 -0.1501  0.0536 -0.2358
  297POPS   C2B 5168   9.757   7.377   6.332 -0.1391  0.1730 -0.0204
  297POPS   D3B 5169   9.847   7.124   6.715  0.0680  0.0994  0.0728
  297POPS   C4B 5170   9.658   7.290   7.085  0.2860 -0.2343 -0.1017
  297POPS   C5B 5171   9.513   7.327   7.509 -0.0419 -0.1435 -0.2877
  298POPS   CNO 5172   7.726   2.893   5.273 -0.5161 -0.3076  0.0562
  298POPS   CNP 5173   7.743   2.834   5.082 -0.1585  0.3737 -0.1368
  298POPS   CNM 5174   7.662   3.057   5.368 -0.3002 -0.2441  0.0937
  298POPS   PO4 5175   7.869   2.947   5.580 -0.3581 -0.3127 -0.0749
  298POPS   GL1 5176   8.013   2.962   5.874 -0.4497  0.1624  0.2545
  298POPS   G1P 5177   8.003   2.968   5.735  0.1264 -0.1241  0.1838
  298POPS   G1M 5178   7.913   2.988   5.779 -0.2674  0.2162  0.0751
  298POPS   GL2 5179   8.120   3.300   6.026  0.0765 -0.0643 -0.0439
  298POPS   G2P 5180   8.113   3.329   5.889  0.1921 -0.0511 -0.0475
  298POPS   G2M 5181   8.061   3.424   5.999 -0.0581 -0.1903 -0.3493
  298POPS   C1A 5182   7.962   3.424   6.370  0.2146  0.1422 -0.0182
  298POPS   C2A 5183   7.625   3.273   6.621 -0.1663 -0.0999  0.2217
  298POPS   C3A 5184   7.175   3.181   6.789  0.1136  0.0388  0.0635
  298POPS   C4A 5185   6.752   2.953   6.754 -0.2493 -0.0443 -0.2825
  298POPS   C1B 5186   8.002   2.813   6.359  0.0556  0.0355  0.1322
  298POPS   C2B 5187   7.953   2.865   6.792  0.0996 -0.0516 -0.0075
  298POPS   D3B 5188   8.122   2.902   7.215 -0.2277  0.1335  0.1526
  298POPS   C4B 5189   8.464   3.176   7.401 -0.0374 -0.2073 -0.4685
  298POPS   C5B 5190   8.745   3.444   7.385  0.0486 -0.0864  0.1373
  299POPS   CNO 5191  10.003   0.183   5.147 -0.1070 -0.1789  0.3784
  299POPS   CNP 5192   9.835   0.269   5.210 -0.4486 -0.4735 -0.0975
  299POPS   CNM 5193  10.172   0.088   5.199  0.2289  0.0928 -0.1600
  299POPS   PO4 5194  10.274   0.359   5.222 -0.0941 -0.3404  0.2393
  299POPS   GL1 5195  10.361   0.409   5.577 -0.1523 -0.0524 -0.5297
  299POPS   G1P 5196  10.499   0.408   5.552 -0.0201  0.2088  0.1078
  299POPS   G1M 5197  10.453   0.443   5.477 -0.0028  0.8556 -0.1278
  299POPS   GL2 5198  10.789   0.336   5.596  0.3764  0.0941  0.1915
  299POPS   G2P 5199  10.683   0.286   5.673  0.0704  0.2995 -0.0825
  299POPS   G2M 5200  10.792   0.233   5.691 -0.2658 -0.0466  0.0804
  299POPS   C1A 5201  10.938  12.117   5.932  0.1626  0.0754 -0.3039
  299POPS   C2A 5202  10.750  11.697   6.118  0.1191  0.1710  0.1578
  299POPS   C3A 5203  10.754  11.371   6.471  0.3301  0.0854  0.1587
  299POPS   C4A 5204  10.462  11.184   6.857 -0.1222  0.3088  0.0370
  299POPS   C1B 5205  10.366   0.467   6.003 -0.1117  0.1190  0.2986
  299POPS   C2B 5206  10.674   0.232   6.264 -0.0016  0.2027 -0.0087
  299POPS   D3B 5207  11.030   0.149   6.360  0.2314 -0.0792  0.1669
  299POPS   C4B 5208  11.263  12.115   6.692 -0.0150  0.1305  0.1091
  299POPS   C5B 5209  11.200  11.905   7.081  0.1988 -0.1208 -0.0033
  300POPS   CNO 5210   2.226   9.158   4.772 -0.1479  0.1124 -0.2768
  300POPS   CNP 5211   2.333   9.298   4.678  0.0693 -0.0016 -0.2045
  300POPS   CNM 5212   2.127   9.004   4.853  0.4881 -0.1845 -0.0224
  300POPS   PO4 5213   2.094   9.147   5.058 -0.1355  0.1317 -0.1658
  300POPS   GL1 5214   1.946   9.093   5.421 -0.2404  0.0046 -0.2350
  300POPS   G1P 5215   1.853   9.128   5.519  0.2555  0.3086  0.1482
  300POPS   G1M 5216   2.003   9.220   5.431  0.0392 -0.1098 -0.3305
  300POPS   GL2 5217   2.181   9.032   5.710 -0.1036 -0.0760  0.1376
  300POPS   G2P 5218   2.134   9.049   5.580 -0.0830 -0.8302  0.0091
  300POPS   G2M 5219   2.188   9.169   5.740 -0.2052 -0.1396  0.4747
  300POPS   C1A 5220   2.287   8.882   6.053 -0.2150  0.1031 -0.1162
  300POPS   C2A 5221   2.255   8.513   6.320  0.5089  0.1860  0.1080
  300POPS   C3A 5222   2.409   8.115   6.496 -0.0323 -0.2702  0.0038
  300POPS   C4A 5223   2.599   7.830   6.717  0.0703 -0.0393 -0.0177
  300POPS   C1B 5224   1.642   9.366   5.570  0.1168 -0.0397  0.0432
  300POPS   C2B 5225   1.471   9.771   5.672 -0.1260 -0.0436  0.3424
  300POPS   D3B 5226   1.383  10.209   5.745 -0.2157  0.3029  0.1569
  300POPS   C4B 5227   1.056  10.396   5.895  0.2377  0.0792 -0.1638
  300POPS   C5B 5228   0.730  10.535   6.115 -0.2868  0.0234  0.1666
  301POPS   CNO 5229   3.628   5.807   4.989  0.2177  0.0155  0.2583
  301POPS   CNP 5230   3.759   5.728   4.860  0.1517  0.2514  0.0423
  301POPS   CNM 5231   3.506   5.700   5.105  0.0774 -0.4139 -0.2650
  301POPS   PO4 5232   3.542   5.927   5.222  0.1583  0.0310 -0.5770
  301POPS   GL1 5233   3.647   6.012   5.578  0.2818 -0.2515  0.2982
  301POPS   G1P 5234   3.642   6.058   5.711 -0.1157  0.1295  0.1638
  301POPS   G1M 5235   3.514   6.057   5.586  0.2803 -0.1547 -0.1474
  301POPS   GL2 5236   3.903   6.075   5.626  0.1989 -0.0300 -0.1980
  301POPS   G2P 5237   3.857   6.183   5.549 -0.0760 -0.1082 -0.1475
  301POPS   G2M 5238   3.777   6.108   5.678  0.0964 -0.3380 -0.2428
  301POPS   C1A 5239   4.338   5.883   5.693 -0.1014  0.0402  0.0118
  301POPS   C2A 5240   4.707   5.759   5.746 -0.0502  0.0179 -0.1452
  301POPS   C3A 5241   5.032   5.534   6.074  0.0786  0.1371  0.0812
  301POPS   C4A 5242   5.055   5.043   6.234 -0.0610 -0.0772  0.0207
  301POPS   C1B 5243   3.634   5.870   6.046  0.0131  0.0036 -0.0996
  301POPS   C2B 5244   3.839   5.928   6.445  0.0423 -0.1049 -0.0264
  301POPS   D3B 5245   3.743   6.172   6.854 -0.2365 -0.2897  0.1501
  301POPS   C4B 5246   3.872   5.867   7.146 -0.0739  0.1368 -0.3383
  301POPS   C5B 5247   4.048   5.753   7.544 -0.3479 -0.3241  0.2317
  302POPS   CNO 5248   5.894  10.751   5.235  0.1369  0.2760  0.1214
  302POPS   CNP 5249   5.859  10.944   5.274 -0.0950  0.1989  0.3109
  302POPS   CNM 5250   5.934  10.557   5.260 -0.0000  0.1782 -0.3708
  302POPS   PO4 5251   5.700  10.469   5.201  0.0332 -0.1636  0.2001
  302POPS   GL1 5252   5.740  10.342   5.571  0.6207 -0.2265 -0.3117
  302POPS   G1P 5253   5.792  10.255   5.667 -0.3219 -0.2098  0.2801
  302POPS   G1M 5254   5.761  10.211   5.527 -0.5658 -0.6958  0.2849
  302POPS   GL2 5255   6.018  10.403   5.681 -0.1841 -0.3419 -0.1438
  302POPS   G2P 5256   6.047  10.268   5.658  0.5081 -0.3849  0.7047
  302POPS   G2M 5257   6.057  10.372   5.550  0.0439  0.0093 -0.1664
  302POPS   C1A 5258   5.899  10.146   6.053  0.2591  0.0800 -0.0402
  302POPS   C2A 5259   5.973   9.786   6.316  0.0369 -0.0022  0.2479
  302POPS   C3A 5260   6.231   9.491   6.474 -0.0837 -0.1576  0.0408
  302POPS   C4A 5261   6.199   9.070   6.505  0.0018  0.1229 -0.1128
  302POPS   C1B 5262   5.464  10.181   5.837 -0.0945 -0.0481  0.3399
  302POPS   C2B 5263   5.399  10.169   6.217  0.1496  0.1127  0.1498
  302POPS   D3B 5264   5.165  10.356   6.505 -0.0411 -0.0291 -0.0228
  302POPS   C4B 5265   5.267  10.699   6.649  0.2280 -0.3883 -0.1168
  302POPS   C5B 5266   5.437  10.998   6.870  0.1656  0.0292 -0.0282
  303POPS   CNO 5267   8.020   7.499   5.079 -0.1977 -0.0327 -0.2929
  303POPS   CNP 5268   8.197   7.410   5.053 -0.1497  0.1280 -0.5326
  303POPS   CNM 5269   7.850   7.411   5.138 -0.0813  0.0307  0.1537
  303POPS   PO4 5270   7.796   7.753   5.275  0.0946  0.4985 -0.1122
  303POPS   GL1 5271   7.742   7.819   5.536 -0.3968 -0.0265  0.0004
  303POPS   G1P 5272   7.652   7.896   5.461 -0.2498  0.0471 -0.1030
  303POPS   G1M 5273   7.739   7.829   5.396 -0.1859 -0.1942 -0.0184
  303POPS   GL2 5274   7.465   7.668   5.762 -0.1002 -0.3221 -0.1161
  303POPS   G2P 5275   7.425   7.534   5.778 -0.3793 -0.2074  0.2056
  303POPS   G2M 5276   7.543   7.557   5.799 -0.3366 -0.4572 -0.0116
  303POPS   C1A 5277   7.681   7.641   6.192 -0.1521 -0.1557  0.0193
  303POPS   C2A 5278   8.073   7.669   6.316  0.0857 -0.1665  0.2931
  303POPS   C3A 5279   8.252   7.901   6.664  0.0305  0.0025 -0.2867
  303POPS   C4A 5280   8.630   8.125   6.795  0.2002 -0.1907 -0.2771
  303POPS   C1B 5281   7.925   7.913   5.903  0.0411  0.4393 -0.0927
  303POPS   C2B 5282   7.824   8.161   6.343  0.1750  0.0982 -0.1972
  303POPS   D3B 5283   8.085   8.437   6.507 -0.0021 -0.1269  0.1015
  303POPS   C4B 5284   8.100   8.330   6.905  0.2493 -0.1362 -0.1404
  303POPS   C5B 5285   7.971   8.478   7.296  0.1246 -0.1976 -0.0718
  304POPS   CNO 5286   4.497   1.672   5.363 -0.0349 -0.3891  0.1589
  304POPS   CNP 5287   4.407   1.531   5.254 -0.0008 -0.4308  0.1843
  304POPS   CNM 5288   4.682   1.682   5.287 -0.1366  0.4530 -0.0310
  304POPS   PO4 5289   4.658   2.090   5.224  0.1293 -0.0658 -0.1436
  304POPS   GL1 5290   4.730   2.085   5.559  0.2487  0.1239  0.0108
  304POPS   G1P 5291   4.599   2.056   5.518  0.2288 -0.2819  0.3309
  304POPS   G1M 5292   4.689   2.191   5.478 -0.1261  0.0368  0.0767
  304POPS   GL2 5293   4.448   1.931   5.790 -0.1686  0.1641  0.5591
  304POPS   G2P 5294   4.448   2.054   5.725  0.8083 -0.1315 -0.1208
  304POPS   G2M 5295   4.327   1.921   5.721  0.2387  0.1997 -0.2222
  304POPS   C1A 5296   4.117   2.117   6.162 -0.2739 -0.0650  0.5216
  304POPS   C2A 5297   4.050   2.575   6.219 -0.3351  0.1973  0.1217
  304POPS   C3A 5298   4.131   3.066   6.220 -0.2219 -0.0787  0.2603
  304POPS   C4A 5299   3.846   3.410   6.055 -0.0082  0.0821 -0.1204
  304POPS   C1B 5300   4.828   1.980   5.978  0.1200  0.1386  0.0184
  304POPS   C2B 5301   4.966   1.811   6.347  0.1099 -0.0543 -0.5157
  304POPS   D3B 5302   4.837   1.908   6.760  0.3923  0.1138  0.0589
  304POPS   C4B 5303   5.113   1.774   7.141 -0.0276 -0.3556 -0.0874
  304POPS   C5B 5304   5.339   1.601   7.422  0.1682 -0.1296 -0.2269
  305POPS   CNO 5305  11.854   7.182   4.809  0.2043  0.2709  0.1504
  305POPS   CNP 5306  11.764   7.096   4.653 -0.0924  0.2947  0.3046
  305POPS   CNM 5307  11.805   7.352   4.904 -0.0446  0.3596 -0.1280
  305POPS   PO4 5308  11.895   7.138   5.102 -0.0648 -0.0409 -0.1373
  305POPS   GL1 5309  11.921   7.121   5.418  0.0646  0.0087  0.4213
  305POPS   G1P 5310  11.902   7.260   5.416  0.0660  0.0079  0.2649
  305POPS   G1M 5311  12.033   7.190   5.370  0.1147 -0.6210 -0.4868
  305POPS   GL2 5312  11.682   6.911   5.558 -0.4848 -0.2019  0.0926
  305POPS   G2P 5313  11.661   7.039   5.505 -0.0871  0.0331  0.4743
  305POPS   G2M 5314  11.616   6.927   5.435  0.0587 -0.2439 -0.2179
  305POPS   C1A 5315  11.929   6.863   5.906  0.2574 -0.2594 -0.1680
  305POPS   C2A 5316   0.158   6.874   6.186 -0.1314  0.1106  0.0624
  305POPS   C3A 5317   0.448   6.696   6.564  0.1324  0.3336 -0.1318
  305POPS   C4A 5318   0.312   6.643   6.939 -0.1673  0.1280  0.0568
  305POPS   C1B 5319  12.047   7.319   5.677  0.2081  0.0936 -0.0239
  305POPS   C2B 5320  12.020   7.424   6.148 -0.1041 -0.0042  0.0992
  305POPS   D3B 5321  11.810   7.688   6.594  0.0750 -0.1899  0.0071
  305POPS   C4B 5322  11.465   8.001   6.645  0.2202 -0.1585  0.0415
  305POPS   C5B 5323  11.291   8.248   6.393  0.1257 -0.1421  0.2646
  306POPS   CNO 5324  11.751   6.640   5.125  0.2126  0.0938  0.1731
  306POPS   CNP 5325  11.782   6.809   5.226 -0.3025  0.2521  0.0821
  306POPS   CNM 5326  11.708   6.447   5.094 -0.1545  0.2439 -0.3247
  306POPS   PO4 5327  12.012   6.450   5.115 -0.2277 -0.1620 -0.0683
  306POPS   GL1 5328  12.160   6.607   5.423 -0.2984  0.3674 -0.3594
  306POPS   G1P 5329  12.098   6.711   5.493 -0.0599  0.4889 -0.3268
  306POPS   G1M 5330  12.034   6.548   5.401 -0.3081  0.2913 -0.1171
  306POPS   GL2 5331   0.220   6.411   5.636  0.3179  0.1967 -0.1336
  306POPS   G2P 5332   0.149   6.302   5.585  0.3411  0.1359 -0.0371
  306POPS   G2M 5333   0.256   6.294   5.570 -0.1149  0.1408 -0.2872
  306POPS   C1A 5334   0.243   6.381   6.131 -0.0339 -0.0458 -0.0903
  306POPS   C2A 5335   0.082   6.398   6.578  0.2641 -0.0337  0.0042
  306POPS   C3A 5336   0.189   6.163   6.951 -0.0357 -0.1287 -0.1338
  306POPS   C4A 5337   0.384   6.413   7.365 -0.0388 -0.1803 -0.0770
  306POPS   C1B 5338   0.249   6.881   5.669 -0.1349  0.2896  0.2939
  306POPS   C2B 5339   0.299   7.239   5.979  0.3606  0.0185  0.0029
  306POPS   D3B 5340   0.255   7.232   6.571 -0.0541 -0.3306  0.3873
  306POPS   C4B 5341   0.384   7.478   6.828 -0.0995 -0.0357  0.1566
  306POPS   C5B 5342   0.152   7.803   6.936 -0.1678 -0.2450  0.0513
  307POPS   CNO 5343  10.914   6.279   5.279  0.3892  0.3277 -0.0073
  307POPS   CNP 5344  10.744   6.353   5.353  0.0840 -0.1363 -0.2262
  307POPS   CNM 5345  11.035   6.164   5.169  0.0999 -0.3789  0.3813
  307POPS   PO4 5346  11.255   6.424   5.251  0.1258  0.0404  0.2505
  307POPS   GL1 5347  11.179   6.546   5.558 -0.4817  0.4546  0.0894
  307POPS   G1P 5348  11.122   6.625   5.658 -0.2094  0.4498  0.2522
  307POPS   G1M 5349  11.040   6.538   5.550 -0.4589 -0.0501  0.0482
  307POPS   GL2 5350  11.111   6.881   5.639  0.1286  0.1487  0.1341
  307POPS   G2P 5351  11.099   7.017   5.669  0.0210  0.0673  0.4939
  307POPS   G2M 5352  11.037   6.910   5.524  0.4675 -0.0785 -0.1493
  307POPS   C1A 5353  11.340   6.745   6.008  0.3794  0.0021  0.2346
  307POPS   C2A 5354  11.331   6.404   6.181  0.1074 -0.1014 -0.0875
  307POPS   C3A 5355  11.063   6.343   6.371  0.0246  0.0806 -0.0365
  307POPS   C4A 5356  10.936   5.937   6.552  0.2105 -0.0920  0.0192
  307POPS   C1B 5357  11.090   6.149   5.804  0.0786  0.1895  0.1380
  307POPS   C2B 5358  11.005   5.843   6.050 -0.1928 -0.0561 -0.1108
  307POPS   D3B 5359  11.263   5.576   6.222 -0.2392  0.0493 -0.0183
  307POPS   C4B 5360  11.695   5.541   6.434 -0.1345 -0.2909  0.1223
  307POPS   C5B 5361  12.014   5.235   6.686  0.1272  0.0087  0.0266
  308POPS   CNO 5362   1.346   2.749   5.112 -0.5751  0.2859  0.4178
  308POPS   CNP 5363   1.298   2.562   5.059  0.5854 -0.0996  0.5804
  308POPS   CNM 5364   1.349   2.907   4.989  0.3827  0.0737  0.1180
  308POPS   PO4 5365   1.339   3.049   5.247 -0.3402 -0.1012 -0.2929
  308POPS   GL1 5366   1.043   3.325   5.463 -0.1269 -0.1620  0.0719
  308POPS   G1P 5367   0.932   3.373   5.394 -0.0090  0.3031  0.1898
  308POPS   G1M 5368   1.033   3.200   5.400 -0.0245 -0.0440 -0.1863
  308POPS   GL2 5369   0.672   3.416   5.397 -0.0878  0.1114  0.1798
  308POPS   G2P 5370   0.571   3.410   5.300  0.0442  0.2720  0.0271
  308POPS   G2M 5371   0.631   3.520   5.311 -0.4689 -0.0178  0.1954
  308POPS   C1A 5372   0.722   3.175   5.835 -0.1286 -0.0461 -0.1956
  308POPS   C2A 5373   0.706   3.065   6.273 -0.2118  0.2274 -0.0024
  308POPS   C3A 5374   0.465   3.266   6.689 -0.0321 -0.1463  0.0497
  308POPS   C4A 5375   0.017   3.275   6.674 -0.2838 -0.1747 -0.0924
  308POPS   C1B 5376   0.976   3.687   5.678 -0.1514  0.0396 -0.1730
  308POPS   C2B 5377   0.705   3.984   5.856 -0.2185  0.0454  0.0539
  308POPS   D3B 5378   0.479   3.965   6.255  0.3853 -0.0579 -0.0812
  308POPS   C4B 5379   0.472   4.298   6.573  0.2836 -0.0692  0.4149
  308POPS   C5B 5380   0.687   4.710   6.350 -0.2296 -0.0026 -0.2820
  309POPS   CNO 5381  11.396   7.458   4.699  0.2073  0.0367 -0.1178
  309POPS   CNP 5382  11.513   7.478   4.538 -0.0375  0.4073 -0.2554
  309POPS   CNM 5383  11.455   7.337   4.848  0.0635  0.3827  0.2275
  309POPS   PO4 5384  11.367   7.626   4.988  0.0730 -0.1774  0.2654
  309POPS   GL1 5385  11.450   7.763   5.230 -0.0006 -0.0984  0.0435
  309POPS   G1P 5386  11.555   7.825   5.298  0.1033 -0.2604  0.0336
  309POPS   G1M 5387  11.474   7.667   5.131  0.1752 -0.7963  0.7217
  309POPS   GL2 5388  11.692   7.596   5.360  0.1261 -0.4943  0.0143
  309POPS   G2P 5389  11.582   7.600   5.273 -0.0870 -0.0573  0.2838
  309POPS   G2M 5390  11.726   7.629   5.229 -0.1178  0.2309  0.1124
  309POPS   C1A 5391  11.694   7.753   5.802 -0.3657 -0.2294  0.1087
  309POPS   C2A 5392  11.611   7.735   6.165 -0.0744  0.1940  0.2727
  309POPS   C3A 5393  11.267   7.702   6.302  0.1587  0.5317  0.0754
  309POPS   C4A 5394  11.077   7.657   6.664 -0.1183 -0.0614  0.3881
  309POPS   C1B 5395  11.438   8.096   5.543 -0.1448  0.0962 -0.0897
  309POPS   C2B 5396  11.514   8.179   5.943 -0.1111 -0.2059 -0.2302
  309POPS   D3B 5397  11.324   8.548   6.034  0.4446  0.1631 -0.1531
  309POPS   C4B 5398  11.354   8.771   6.424  0.2084  0.1127  0.0734
  309POPS   C5B 5399  11.649   8.955   6.571  0.1695  0.1803  0.0609
  310POPS   CNO 5400  11.447   3.090   4.942  0.3928 -0.1738 -0.2217
  310POPS   CNP 5401  11.508   3.266   4.870  0.0585  0.0405  0.0012
  310POPS   CNM 5402  11.273   3.007   4.994  0.3467  0.0840  0.0496
  310POPS   PO4 5403  11.501   2.804   5.198 -0.0670 -0.2344 -0.4461
  310POPS   GL1 5404  11.596   2.623   5.422  0.3694 -0.1769 -0.4784
  310POPS   G1P 5405  11.654   2.624   5.550 -0.1747  0.0326 -0.2204
  310POPS   G1M 5406  11.685   2.724   5.383 -0.1084  0.2642 -0.4769
  310POPS   GL2 5407  11.808   2.401   5.524  0.0434 -0.3876  0.5094
  310POPS   G2P 5408  11.721   2.485   5.595  0.0556 -0.1585  0.2580
  310POPS   G2M 5409  11.847   2.534   5.542 -0.1641 -0.3614  0.8046
  310POPS   C1A 5410  11.708   2.102   5.887  0.1878  0.0460 -0.0219
  310POPS   C2A 5411  11.788   1.663   6.089 -0.1530 -0.1392  0.1111
  310POPS   C3A 5412  11.742   1.171   6.097  0.1523  0.2304 -0.0222
  310POPS   C4A 5413  11.831   0.907   5.803  0.1472 -0.0434  0.2671
  310POPS   C1B 5414  11.621   2.550   5.977 -0.0277 -0.0870  0.1707
  310POPS   C2B 5415  11.872   2.596   6.340  0.2584  0.1511  0.3264
  310POPS   D3B 5416  11.770   2.708   6.736 -0.0692  0.1535  0.0747
  310POPS   C4B 5417  11.407   2.421   6.799 -0.1054  0.0336  0.1042
  310POPS   C5B 5418  11.044   2.175   6.830 -0.0415 -0.0846 -0.1903
  311POPS   CNO 5419   2.049   8.409   4.919  0.0086 -0.1092 -0.1496
  311POPS   CNP 5420   1.996   8.232   4.841 -0.5641  0.0256 -0.0895
  311POPS   CNM 5421   2.049   8.604   4.875  0.4374 -0.0258  0.1820
  311POPS   PO4 5422   1.892   8.589   5.186  0.3667  0.1802 -0.0139
  311POPS   GL1 5423   1.881   8.565   5.526  0.1429 -0.1495  0.1785
  311POPS   G1P 5424   1.898   8.525   5.393  0.3145 -0.0033  0.1535
  311POPS   G1M 5425   2.019   8.552   5.508  0.1549  0.2432 -0.0807
  311POPS   GL2 5426   1.632   8.806   5.664  0.1545  0.0847  0.2120
  311POPS   G2P 5427   1.744   8.757   5.595  0.2321  0.5574 -0.0231
  311POPS   G2M 5428   1.658   8.927   5.598  0.1987 -0.1591 -0.2367
  311POPS   C1A 5429   1.311   9.118   5.857 -0.2387  0.3257  0.0644
  311POPS   C2A 5430   1.136   9.507   5.815  0.0283 -0.1766 -0.2250
  311POPS   C3A 5431   1.015   9.917   5.987  0.0957  0.0573 -0.3740
  311POPS   C4A 5432   1.066  10.164   6.386 -0.0933  0.0207  0.2963
  311POPS   C1B 5433   2.221   8.385   5.790 -0.1596  0.0622  0.1475
  311POPS   C2B 5434   2.358   8.005   5.964 -0.3018  0.0380 -0.0646
  311POPS   D3B 5435   2.420   7.543   6.206 -0.0474  0.1089  0.2281
  311POPS   C4B 5436   2.699   7.405   6.445 -0.1204  0.1352  0.0802
  311POPS   C5B 5437   2.821   7.178   6.759  0.1928 -0.0093  0.0176
  312POPS   CNO 5438   6.021  10.007   5.246 -0.2883 -0.2138 -0.3142
  312POPS   CNP 5439   6.005   9.844   5.131 -0.4455 -0.1266 -0.4162
  312POPS   CNM 5440   6.071  10.200   5.237  0.0303 -0.2731  0.0208
  312POPS   PO4 5441   6.375  10.113   5.283  0.0404 -0.2158  0.1672
  312POPS   GL1 5442   6.370   9.842   5.563 -0.2049  0.4278  0.3280
  312POPS   G1P 5443   6.491   9.861   5.630  0.3086 -0.9537 -0.0385
  312POPS   G1M 5444   6.431   9.775   5.456 -0.3673 -0.2124  0.6180
  312POPS   GL2 5445   5.965   9.823   5.714  0.2427  0.0720  0.0517
  312POPS   G2P 5446   5.958   9.743   5.599 -0.4897  0.3245 -0.1110
  312POPS   G2M 5447   5.895   9.704   5.739 -0.0382  0.2114 -0.0422
  312POPS   C1A 5448   5.976   9.474   5.956  0.1242 -0.0856  0.2219
  312POPS   C2A 5449   5.715   9.263   6.275  0.1328 -0.1533 -0.0451
  312POPS   C3A 5450   5.754   8.870   6.377  0.0156 -0.1200 -0.0953
  312POPS   C4A 5451   6.032   8.592   6.377 -0.1531 -0.0452 -0.1070
  312POPS   C1B 5452   6.379   9.849   6.065  0.0458 -0.3849 -0.2669
  312POPS   C2B 5453   6.660   9.791   6.356 -0.1725  0.1809 -0.1315
  312POPS   D3B 5454   7.074   9.788   6.706  0.1212 -0.0258  0.2153
  312POPS   C4B 5455   7.485   9.571   6.575 -0.0314  0.0298  0.1585
  312POPS   C5B 5456   7.707   9.156   6.559  0.0289 -0.1906 -0.2022
  313POPS   CNO 5457   3.649   4.218   5.186 -0.2194  0.1353 -0.0962
  313POPS   CNP 5458   3.810   4.310   5.113  0.0520 -0.3793 -0.1690
  313POPS   CNM 5459   3.528   4.071   5.249  0.0488 -0.1646 -0.2657
  313POPS   PO4 5460   3.330   4.301   5.149 -0.0448 -0.0340 -0.1938
  313POPS   GL1 5461   3.237   4.262   5.521  0.0593 -0.2327  0.3622
  313POPS   G1P 5462   3.240   4.128   5.481  0.4226 -0.1742  0.1663
  313POPS   G1M 5463   3.331   4.187   5.448  0.4007  0.5581 -0.0690
  313POPS   GL2 5464   3.379   4.080   5.725  0.0675  0.0229  0.1361
  313POPS   G2P 5465   3.357   3.949   5.680  0.2040 -0.0152  0.1767
  313POPS   G2M 5466   3.396   4.095   5.587 -0.3150 -0.0770  0.0713
  313POPS   C1A 5467   3.557   4.083   6.194 -0.4396 -0.0528 -0.0108
  313POPS   C2A 5468   3.755   3.779   6.387 -0.4118  0.2405  0.1289
  313POPS   C3A 5469   3.806   3.360   6.569 -0.1918  0.0870 -0.2688
  313POPS   C4A 5470   3.634   2.993   6.727  0.0774 -0.2135  0.1292
  313POPS   C1B 5471   3.024   4.520   5.861  0.1438  0.2581 -0.0807
  313POPS   C2B 5472   2.790   4.567   6.268  0.0505  0.2055  0.0679
  313POPS   D3B 5473   2.793   4.582   6.641 -0.3220 -0.0621 -0.0671
  313POPS   C4B 5474   2.725   4.292   6.881  0.0283 -0.1278 -0.1315
  313POPS   C5B 5475   2.935   3.996   7.090  0.0789  0.0177  0.0148
  314POPS   CNO 5476  11.742   7.892   4.667 -0.1295  0.0228  0.0282
  314POPS   CNP 5477  11.650   7.883   4.489  0.2038  0.4652 -0.1774
  314POPS   CNM 5478  11.771   7.769   4.821 -0.3708  0.2928  0.2958
  314POPS   PO4 5479  11.907   7.961   5.061  0.2697 -0.1481  0.2985
  314POPS   GL1 5480  11.988   8.174   5.264  0.2465  0.3122  0.4528
  314POPS   G1P 5481  12.044   8.061   5.324 -0.1342 -0.1911 -0.0851
  314POPS   G1M 5482  12.045   8.104   5.157  0.1301  0.3880  0.3397
  314POPS   GL2 5483  11.903   8.461   5.299  0.2419 -0.0070  0.1220
  314POPS   G2P 5484  11.867   8.581   5.361  0.0412  0.0373 -0.0771
  314POPS   G2M 5485  11.770   8.460   5.340  0.0789 -0.0628 -0.3751
  314POPS   C1A 5486  12.064   8.903   5.521  0.0200  0.0975  0.1178
  314POPS   C2A 5487   0.270   9.024   5.683 -0.2861 -0.0452  0.3154
  314POPS   C3A 5488   0.279   8.997   6.071 -0.0882 -0.0496 -0.1785
  314POPS   C4A 5489  12.122   8.927   6.407  0.2646  0.0103  0.3616
  314POPS   C1B 5490   0.172   8.306   5.566 -0.0858  0.3006  0.0037
  314POPS   C2B 5491   0.384   8.206   5.942 -0.0717  0.0551 -0.1599
  314POPS   D3B 5492   0.399   8.005   6.409  0.0143 -0.1663 -0.0208
  314POPS   C4B 5493   0.586   8.293   6.770  0.0099 -0.1934 -0.1215
  314POPS   C5B 5494   0.623   8.447   7.237  0.0864  0.1771 -0.1249
  315POPS   CNO 5495   9.750   6.486   5.252  0.1437  0.1272 -0.0444
  315POPS   CNP 5496   9.806   6.671   5.201  0.0686  0.1394 -0.0848
  315POPS   CNM 5497   9.749   6.286   5.239 -0.4578  0.1335 -0.2873
  315POPS   PO4 5498   9.670   6.289   5.501  0.2211  0.1709  0.3410
  315POPS   GL1 5499   9.580   6.172   5.806 -0.4283  0.0047 -0.0456
  315POPS   G1P 5500   9.483   6.241   5.733  0.0345  0.1732 -0.5336
  315POPS   G1M 5501   9.581   6.112   5.679  0.2687 -0.4510  0.1412
  315POPS   GL2 5502   9.298   6.235   5.827 -0.0578 -0.0295  0.1572
  315POPS   G2P 5503   9.218   6.297   5.924 -0.0438  0.1037  0.0838
  315POPS   G2M 5504   9.342   6.178   5.948  0.1780 -0.5361 -0.1507
  315POPS   C1A 5505   9.473   6.634   6.145 -0.2812 -0.3650  0.0669
  315POPS   C2A 5506   9.843   6.810   6.274  0.1849 -0.0499 -0.0213
  315POPS   C3A 5507  10.300   6.960   6.257 -0.2089 -0.2002 -0.1761
  315POPS   C4A 5508  10.565   7.018   5.971  0.1071 -0.2149  0.4123
  315POPS   C1B 5509   9.694   6.185   6.277 -0.0113  0.1055 -0.0559
  315POPS   C2B 5510   9.721   5.971   6.588  0.3808  0.0755 -0.0108
  315POPS   D3B 5511   9.657   5.869   7.024 -0.0731 -0.1848 -0.0430
  315POPS   C4B 5512   9.251   5.658   7.201  0.0719 -0.1941  0.3881
  315POPS   C5B 5513   9.054   5.315   6.963  0.1389  0.1062  0.0110
  316POPS   CNO 5514   1.043   4.102   4.584  0.0133 -0.0976 -0.1333
  316POPS   CNP 5515   1.165   3.989   4.473 -0.0400 -0.2085 -0.0799
  316POPS   CNM 5516   0.977   4.279   4.648  0.1975 -0.1632  0.2547
  316POPS   PO4 5517   0.665   4.235   4.713  0.2695 -0.0949 -0.0023
  316POPS   GL1 5518   0.637   4.400   5.040  0.2880  0.1194 -0.0877
  316POPS   G1P 5519   0.638   4.356   4.907  0.4223 -0.1803  0.0076
  316POPS   G1M 5520   0.702   4.447   4.925 -0.0078 -0.2746 -0.4290
  316POPS   GL2 5521   0.878   4.646   5.128 -0.0404  0.0613  0.2769
  316POPS   G2P 5522   0.760   4.594   5.183  0.0467 -0.3985  0.0477
  316POPS   G2M 5523   0.738   4.657   5.136 -0.0617 -0.1142  0.1725
  316POPS   C1A 5524   1.058   4.368   5.480 -0.1234 -0.2215 -0.0665
  316POPS   C2A 5525   1.246   4.046   5.811 -0.1247  0.1342  0.0695
  316POPS   C3A 5526   1.175   3.737   6.224 -0.0233 -0.0464  0.0581
  316POPS   C4A 5527   1.191   3.465   6.534  0.2051  0.0409 -0.1506
  316POPS   C1B 5528   0.423   4.365   5.432  0.0596  0.1143 -0.1768
  316POPS   C2B 5529   0.090   4.547   5.681 -0.0560  0.1541 -0.0120
  316POPS   D3B 5530  11.963   4.405   6.026  0.1461  0.0246  0.2527
  316POPS   C4B 5531  11.644   4.086   6.152  0.1666  0.0697 -0.1278
  316POPS   C5B 5532  11.263   4.079   6.221 -0.0745 -0.1591 -0.1644
  317POPS   CNO 5533   7.381   7.079   5.167 -0.2234  0.0700 -0.0513
  317POPS   CNP 5534   7.182   7.058   5.180 -0.2178  0.0620  0.0281
  317POPS   CNM 5535   7.527   7.189   5.248  0.0712 -0.5034  0.2305
  317POPS   PO4 5536   7.622   6.924   5.269  0.1961 -0.0111  0.2512
  317POPS   GL1 5537   7.817   6.872   5.631 -0.0214 -0.1992  0.2734
  317POPS   G1P 5538   7.701   6.795   5.616 -0.1246 -0.0536  0.3150
  317POPS   G1M 5539   7.795   6.861   5.493  0.0140  0.4275  0.2048
  317POPS   GL2 5540   7.932   7.301   5.629 -0.4727 -0.2760  0.0843
  317POPS   G2P 5541   7.821   7.366   5.575 -0.4680  0.0516  0.4470
  317POPS   G2M 5542   7.907   7.237   5.508 -0.2460 -0.0122 -0.1097
  317POPS   C1A 5543   8.262   7.217   5.800  0.0695 -0.0402 -0.1077
  317POPS   C2A 5544   8.415   7.290   6.158  0.2467  0.0734  0.2963
  317POPS   C3A 5545   8.607   7.534   6.479 -0.0123  0.1544 -0.3151
  317POPS   C4A 5546   8.888   8.047   6.407  0.3220  0.0665  0.1612
  317POPS   C1B 5547   8.281   6.720   5.711  0.2493 -0.1980 -0.0012
  317POPS   C2B 5548   8.585   6.653   5.967  0.3020  0.0914  0.0169
  317POPS   D3B 5549   8.870   6.447   6.133 -0.2768 -0.1495 -0.2503
  317POPS   C4B 5550   8.823   6.045   6.220  0.2571 -0.1170 -0.4610
  317POPS   C5B 5551   8.558   5.773   5.946  0.1515 -0.3612  0.0319
  318POPS   CNO 5552  10.304  11.192   5.011  0.1613 -0.2062 -0.1681
  318POPS   CNP 5553  10.502  11.212   5.034  0.1178 -0.2966  0.3446
  318POPS   CNM 5554  10.133  11.295   5.015  0.1276 -0.2646 -0.1211
  318POPS   PO4 5555   9.917  11.022   4.983  0.1172 -0.0457 -0.3343
  318POPS   GL1 5556   9.870  10.854   5.328 -0.1084  0.4226 -0.2205
  318POPS   G1P 5557   9.757  10.879   5.407  0.0971  0.0866  0.2018
  318POPS   G1M 5558   9.760  10.937   5.303 -0.1874  0.4078  0.0543
  318POPS   GL2 5559   9.740  10.512   5.366  0.1535  0.2183  0.1938
  318POPS   G2P 5560   9.793  10.624   5.431  0.1255  0.3636 -0.0268
  318POPS   G2M 5561   9.792  10.454   5.482 -0.1009 -0.2727  0.0754
  318POPS   C1A 5562   9.504  10.390   5.581 -0.3884 -0.1869 -0.0321
  318POPS   C2A 5563   9.250  10.580   5.886 -0.2384 -0.0997 -0.0917
  318POPS   C3A 5564   9.505  10.617   6.218  0.3224 -0.1546 -0.1317
  318POPS   C4A 5565   9.928  10.519   6.301 -0.2683 -0.0216 -0.0216
  318POPS   C1B 5566   9.689  10.843   5.788  0.3477  0.3308 -0.1812
  318POPS   C2B 5567   9.737  11.061   6.047  0.2068  0.1337  0.1232
  318POPS   D3B 5568   9.715  11.367   6.364  0.0029  0.3392 -0.1247
  318POPS   C4B 5569   9.417  11.642   6.369  0.2237  0.0067  0.1705
  318POPS   C5B 5570   9.094  11.792   6.580  0.3237  0.0279 -0.2199
  319POPS   CNO 5571   9.275   5.624   4.938  0.6351  0.4604 -0.1461
  319POPS   CNP 5572   9.219   5.778   4.823 -0.2502  0.5609  0.3807
  319POPS   CNM 5573   9.412   5.554   5.067 -0.2189 -0.2143  0.4514
  319POPS   PO4 5574   9.172   5.465   5.295 -0.2105  0.2463  0.4218
  319POPS   GL1 5575   9.246   5.486   5.635  0.0126  0.0726 -0.2319
  319POPS   G1P 5576   9.383   5.478   5.604 -0.0296  0.3355 -0.5143
  319POPS   G1M 5577   9.264   5.417   5.514  0.2294 -0.2041 -0.0476
  319POPS   GL2 5578   9.261   5.750   5.767 -0.3834  0.0347 -0.3475
  319POPS   G2P 5579   9.153   5.834   5.738 -0.1753  0.4233 -0.0435
  319POPS   G2M 5580   9.274   5.887   5.789 -0.2069  0.0290 -0.4091
  319POPS   C1A 5581   9.436   5.767   6.144  0.3877 -0.1712 -0.0976
  319POPS   C2A 5582   9.255   5.683   6.574  0.1715 -0.2740 -0.3484
  319POPS   C3A 5583   9.137   5.975   6.759 -0.0104  0.1972  0.0126
  319POPS   C4A 5584   8.744   6.196   6.788 -0.3370  0.0468  0.1164
  319POPS   C1B 5585   9.467   5.310   5.943 -0.0468  0.1665  0.1195
  319POPS   C2B 5586   9.615   4.951   6.233  0.0995 -0.1693 -0.1530
  319POPS   D3B 5587   9.949   4.578   6.431 -0.1784 -0.0128 -0.0364
  319POPS   C4B 5588   9.961   4.569   6.830 -0.1528  0.2879 -0.1591
  319POPS   C5B 5589  10.152   4.390   7.190  0.0225  0.0681 -0.0993
  320POPS   CNO 5590   9.837  11.756   4.860  0.0309  0.4397  0.2437
  320POPS   CNP 5591   9.878  11.921   4.754  0.0026  0.1170 -0.2868
  320POPS   CNM 5592   9.862  11.589   4.966 -0.0891  0.1164 -0.2190
  320POPS   PO4 5593   9.633  11.653   5.083 -0.1348  0.0881 -0.0463
  320POPS   GL1 5594   9.583  11.550   5.390 -0.2502 -0.0257 -0.2724
  320POPS   G1P 5595   9.596  11.540   5.529  0.4269 -0.4628 -0.3408
  320POPS   G1M 5596   9.689  11.631   5.346 -0.1158  0.0243  0.1195
  320POPS   GL2 5597   9.537  11.271   5.483 -0.5046  0.4366  0.4346
  320POPS   G2P 5598   9.584  11.158   5.414 -0.2995  0.4683  0.5164
  320POPS   G2M 5599   9.484  11.162   5.553  0.1052  0.0277  0.3068
  320POPS   C1A 5600   9.966  11.265   5.617  0.0900 -0.2056 -0.1590
  320POPS   C2A 5601  10.140  10.944   5.701  0.0023  0.0226 -0.1758
  320POPS   C3A 5602  10.040  10.477   5.831  0.2919  0.0391  0.1614
  320POPS   C4A 5603  10.223  10.162   6.047  0.0404  0.0895 -0.2461
  320POPS   C1B 5604   9.633  11.590   5.928 -0.0047  0.2604  0.2380
  320POPS   C2B 5605   9.825  11.870   6.204  0.0641  0.0585 -0.0365
  320POPS   D3B 5606   9.803  11.974   6.598 -0.0069 -0.1048 -0.1773
  320POPS   C4B 5607   9.667  11.756   6.902 -0.2839  0.5509  0.0750
  320POPS   C5B 5608   9.493  11.426   7.111 -0.0824  0.1923 -0.0341
  321POPS   CNO 5609   4.961   0.431   5.274  0.3967 -0.1381  0.3756
  321POPS   CNP 5610   5.120   0.334   5.347  0.6088 -0.1604 -0.0968
  321POPS   CNM 5611   4.842   0.585   5.316 -0.3675 -0.3998 -0.6492
  321POPS   PO4 5612   4.633   0.450   5.254  0.0588  0.1320  0.0652
  321POPS   GL1 5613   4.435   0.681   5.435 -0.0847 -0.2030  0.1434
  321POPS   G1P 5614   4.469   0.810   5.477 -0.0136 -0.0676 -0.3026
  321POPS   G1M 5615   4.566   0.692   5.385 -0.1969  0.0722 -0.1010
  321POPS   GL2 5616   4.704   0.671   5.676  0.1154 -0.3172  0.0702
  321POPS   G2P 5617   4.633   0.624   5.564  0.0589 -0.2959  0.0970
  321POPS   G2M 5618   4.566   0.688   5.656  0.0913  0.1021  0.5161
  321POPS   C1A 5619   4.562   0.394   5.840 -0.2156  0.2998  0.1753
  321POPS   C2A 5620   4.553  12.118   5.973  0.3126 -0.1067  0.0550
  321POPS   C3A 5621   4.560  11.944   6.407  0.1707 -0.0895 -0.2892
  321POPS   C4A 5622   4.197  11.769   6.652 -0.2444 -0.0142  0.1714
  321POPS   C1B 5623   4.328   0.806   5.931  0.2239 -0.0272  0.1225
  321POPS   C2B 5624   4.395   0.568   6.269  0.0956  0.3066 -0.0311
  321POPS   D3B 5625   4.764   0.296   6.421  0.3662 -0.2984  0.0217
  321POPS   C4B 5626   4.802   0.153   6.817 -0.1291  0.0648 -0.1029
  321POPS   C5B 5627   4.899  11.919   7.031  0.0151  0.5070 -0.0868
  322POPS   CNO 5628   1.261   4.775   4.733 -0.1479  0.3092 -0.3354
  322POPS   CNP 5629   1.311   4.968   4.729  0.2007  0.2241 -0.2733
  322POPS   CNM 5630   1.103   4.655   4.761 -0.0620  0.3720  0.5747
  322POPS   PO4 5631   1.363   4.478   4.935 -0.0931 -0.0966 -0.3999
  322POPS   GL1 5632   1.209   4.229   5.036 -0.5597 -0.6044 -0.2516
  322POPS   G1P 5633   1.222   4.092   5.065 -0.2802 -0.4590  0.3922
  322POPS   G1M 5634   1.217   4.178   5.167 -0.2931  0.3883  0.1608
  322POPS   GL2 5635   1.406   3.925   4.917 -0.1629 -0.1476  0.3102
  322POPS   G2P 5636   1.412   3.969   5.050 -0.2353  0.2996  0.1737
  322POPS   G2M 5637   1.535   3.872   4.927 -0.1280 -0.1003  0.1296
  322POPS   C1A 5638   1.355   3.714   5.303  0.2237 -0.2256 -0.1247
  322POPS   C2A 5639   1.502   3.401   5.681 -0.3698  0.2042 -0.0203
  322POPS   C3A 5640   1.950   3.441   5.745 -0.0682  0.3115  0.3332
  322POPS   C4A 5641   2.406   3.594   5.640  0.0693  0.0416 -0.1544
  322POPS   C1B 5642   0.844   3.933   5.216 -0.1416  0.2276  0.2399
  322POPS   C2B 5643   0.422   3.858   5.405 -0.3487 -0.4060 -0.1576
  322POPS   D3B 5644   0.378   3.564   5.813 -0.0695 -0.4640 -0.3825
  322POPS   C4B 5645   0.698   3.566   6.182 -0.3086 -0.1308 -0.1413
  322POPS   C5B 5646   0.730   3.676   6.566 -0.0455 -0.0114 -0.0038
  323POPS   CNO 5647   6.221   7.546   4.877  0.1609  0.1081 -0.2026
  323POPS   CNP 5648   6.401   7.464   4.844  0.1080 -0.1299  0.0837
  323POPS   CNM 5649   6.205   7.742   4.913 -0.3436  0.0967 -0.3345
  323POPS   PO4 5650   5.906   7.648   4.935  0.0879 -0.1696  0.2399
  323POPS   GL1 5651   5.907   7.731   5.245 -0.1016 -0.0726 -0.1162
  323POPS   G1P 5652   5.836   7.832   5.311  0.3044  0.2149 -0.1035
  323POPS   G1M 5653   5.940   7.815   5.138 -0.1732  0.5613  0.3301
  323POPS   GL2 5654   6.216   7.749   5.361  0.2524  0.0487 -0.0703
  323POPS   G2P 5655   6.256   7.615   5.350  0.2271  0.0023  0.3139
  323POPS   G2M 5656   6.101   7.669   5.359  0.1663  0.1725 -0.4261
  323POPS   C1A 5657   6.411   8.003   5.710 -0.0632  0.3433  0.1587
  323POPS   C2A 5658   6.617   8.282   5.969 -0.1553 -0.5769 -0.1483
  323POPS   C3A 5659   6.547   8.656   6.128  0.1126  0.1286  0.2118
  323POPS   C4A 5660   6.141   8.943   5.984 -0.3307 -0.1929  0.3453
  323POPS   C1B 5661   5.790   8.006   5.589  0.0370 -0.2252 -0.3506
  323POPS   C2B 5662   5.695   8.325   5.963 -0.1470 -0.2715 -0.1629
  323POPS   D3B 5663   5.487   8.431   6.313  0.1703  0.0917 -0.1387
  323POPS   C4B 5664   5.134   8.481   6.203 -0.3205 -0.1607  0.0200
  323POPS   C5B 5665   4.683   8.454   6.177  0.0531  0.1855 -0.1197
  324POPS   CNO 5666   4.550   1.067   5.091 -0.3442 -0.4549 -0.2867
  324POPS   CNP 5667   4.353   1.055   5.059 -0.4194  0.2032 -0.1325
  324POPS   CNM 5668   4.699   0.976   5.189 -0.7456 -0.1550  0.6711
  324POPS   PO4 5669   4.779   1.266   5.265 -0.0585  0.0020  0.0611
  324POPS   GL1 5670   4.820   1.144   5.581  0.0299 -0.2525 -0.0748
  324POPS   G1P 5671   4.879   1.177   5.703 -0.1412 -0.2556  0.0112
  324POPS   G1M 5672   4.894   1.034   5.626  0.1051 -0.0226  0.3911
  324POPS   GL2 5673   4.846   1.537   5.714  0.3189  0.0603 -0.2980
  324POPS   G2P 5674   4.807   1.621   5.819  0.2685 -0.1626 -0.1351
  324POPS   G2M 5675   4.716   1.558   5.763  0.4142 -0.2236  0.0999
  324POPS   C1A 5676   5.250   1.591   6.018 -0.1008  0.0756 -0.1562
  324POPS   C2A 5677   5.644   1.746   6.033  0.1832  0.0697 -0.2115
  324POPS   C3A 5678   6.024   1.964   6.150  0.4544 -0.1450 -0.3746
  324POPS   C4A 5679   6.239   2.362   6.218  0.2095  0.2919 -0.0605
  324POPS   C1B 5680   4.850   1.032   6.011 -0.1452  0.2305  0.1707
  324POPS   C2B 5681   4.980   1.257   6.357  0.0059  0.1670  0.0794
  324POPS   D3B 5682   4.968   1.431   6.768  0.1557  0.0328 -0.1399
  324POPS   C4B 5683   4.575   1.567   6.961 -0.3041  0.0724  0.2114
  324POPS   C5B 5684   4.427   1.832   7.344  0.0271 -0.0572  0.1142
  325POPS   CNO 5685   6.072   1.145   5.269 -0.2966 -0.1689  0.0181
  325POPS   CNP 5686   6.233   1.076   5.364 -0.2472 -0.4320 -0.2481
  325POPS   CNM 5687   6.009   1.169   5.080  0.2679 -0.4397 -0.2168
  325POPS   PO4 5688   5.715   1.272   5.200 -0.2294  0.0537  0.2215
  325POPS   GL1 5689   5.640   1.234   5.554 -0.5464  0.3073 -0.0638
  325POPS   G1P 5690   5.548   1.265   5.655 -0.1255 -0.2916  0.5471
  325POPS   G1M 5691   5.622   1.315   5.441 -0.0904  0.1615 -0.2524
  325POPS   GL2 5692   5.874   1.211   5.728 -0.5328  0.1490  0.4734
  325POPS   G2P 5693   5.911   1.270   5.850 -0.1602  0.1531  0.3634
  325POPS   G2M 5694   5.956   1.320   5.756 -0.1964  0.0117  0.0728
  325POPS   C1A 5695   6.092   1.427   6.031  0.0100  0.1330  0.1541
  325POPS   C2A 5696   6.531   1.525   6.087 -0.0773 -0.1292  0.1008
  325POPS   C3A 5697   6.959   1.660   6.209 -0.1367 -0.1040 -0.1151
  325POPS   C4A 5698   7.334   1.683   6.451 -0.0722 -0.0771  0.1785
  325POPS   C1B 5699   5.352   1.076   5.838 -0.0639  0.0036  0.0417
  325POPS   C2B 5700   5.420   1.159   6.158 -0.1014  0.5004 -0.1652
  325POPS   D3B 5701   5.447   1.451   6.466 -0.0412  0.1745  0.3280
  325POPS   C4B 5702   5.799   1.615   6.505 -0.2291  0.1116 -0.0397
  325POPS   C5B 5703   6.330   1.557   6.544  0.0118 -0.2420 -0.2367
  326POPS   CNO 5704   1.517   0.126   5.252  0.6619 -0.2778 -0.1421
  326POPS   CNP 5705   1.582   0.316   5.258 -0.2900  0.0847 -0.3633
  326POPS   CNM 5706   1.415  -0.042   5.285  0.2241 -0.0451 -0.2700
  326POPS   PO4 5707   1.691  12.006   5.249 -0.5698 -0.2343 -0.1090
  326POPS   GL1 5708   1.765  12.043   5.579  0.2606 -0.4592 -0.0163
  326POPS   G1P 5709   1.847  12.057   5.692  0.1162  0.4403  0.0134
  326POPS   G1M 5710   1.650  12.003   5.648  0.3272 -0.0014  0.3890
  326POPS   GL2 5711   1.452  11.984   5.691  0.2682  0.1693 -0.0701
  326POPS   G2P 5712   1.481  11.917   5.572 -0.2533 -0.0581 -0.0819
  326POPS   G2M 5713   1.413  12.053   5.576 -0.0206  0.3572  0.1331
  326POPS   C1A 5714   1.451   0.064   6.024 -0.1182  0.0703 -0.1036
  326POPS   C2A 5715   1.568   0.119   6.556 -0.2019  0.0043  0.1351
  326POPS   C3A 5716   1.780  12.106   6.934  0.0695  0.2590 -0.0607
  326POPS   C4A 5717   2.135  12.054   7.192  0.0474 -0.4353 -0.0531
  326POPS   C1B 5718   1.979  11.955   5.965  0.2946 -0.0501 -0.2900
  326POPS   C2B 5719   2.391  12.006   6.179  0.0640  0.1644 -0.2643
  326POPS   D3B 5720   2.688   0.111   6.340 -0.0784 -0.0499  0.1132
  326POPS   C4B 5721   2.529   0.531   6.258 -0.5395 -0.1783  0.0631
  326POPS   C5B 5722   2.190   0.775   6.123  0.2081 -0.0351  0.0383
  327POPS   CNO 5723  10.761   3.023   5.230 -0.0812  0.0849 -0.6070
  327POPS   CNP 5724  10.642   3.180   5.262  0.0932  0.0984  0.0478
  327POPS   CNM 5725  10.905   2.922   5.135 -0.2678 -0.4855 -0.3086
  327POPS   PO4 5726  10.829   2.710   5.252 -0.0428  0.3398  0.2593
  327POPS   GL1 5727  10.748   2.474   5.557 -0.0357  0.0175  0.1368
  327POPS   G1P 5728  10.762   2.355   5.628 -0.3153 -0.0547  0.0776
  327POPS   G1M 5729  10.636   2.415   5.617 -0.1972  0.2617  0.0889
  327POPS   GL2 5730  10.462   2.567   5.540 -0.4070 -0.2679 -0.0352
  327POPS   G2P 5731  10.355   2.642   5.491 -0.0612  0.4484  0.2299
  327POPS   G2M 5732  10.413   2.671   5.619 -0.3365 -0.1050 -0.2046
  327POPS   C1A 5733  10.615   2.625   6.064  0.0386 -0.1705 -0.1118
  327POPS   C2A 5734  10.361   2.622   6.519 -0.0538  0.1513 -0.1532
  327POPS   C3A 5735  10.208   2.460   6.882  0.1655  0.0277 -0.2258
  327POPS   C4A 5736  10.259   2.153   7.295 -0.2503  0.0390  0.3209
  327POPS   C1B 5737  10.910   2.093   5.861 -0.1798  0.1530 -0.2286
  327POPS   C2B 5738  10.897   2.125   6.266 -0.0084 -0.1817  0.0894
  327POPS   D3B 5739  10.880   2.451   6.484  0.0883 -0.1628  0.3854
  327POPS   C4B 5740  11.255   2.741   6.466  0.3193 -0.0707  0.4310
  327POPS   C5B 5741  11.228   3.032   6.052  0.3544 -0.1368 -0.0272
  328POPS   CNO 5742  11.858   0.132   5.120  0.7047  0.3293 -0.3135
  328POPS   CNP 5743  11.816  -0.000   4.976  0.0922  0.1742 -0.0121
  328POPS   CNM 5744  11.989   0.139   5.271  0.3480 -0.2047  0.0404
  328POPS   PO4 5745  11.812   0.259   5.464  0.3027 -0.4226  0.3177
  328POPS   GL1 5746  11.803   0.367   5.714 -0.1119  0.5295  0.0243
  328POPS   G1P 5747  11.744   0.486   5.758 -0.2474  0.3391  0.3774
  328POPS   G1M 5748  11.803   0.444   5.597 -0.1810  0.6184  0.0817
  328POPS   GL2 5749  -0.033   0.327   5.899  0.3913  0.0973 -0.1359
  328POPS   G2P 5750   0.043   0.217   5.858  0.3780  0.0022  0.0891
  328POPS   G2M 5751   0.077   0.364   5.822  0.1694 -0.1595 -0.5980
  328POPS   C1A 5752   0.193   0.463   6.204  0.2652  0.2439  0.0957
  328POPS   C2A 5753   0.278   0.640   6.599 -0.0537 -0.2412  0.1644
  328POPS   C3A 5754   0.506   0.625   6.933 -0.4186  0.0809  0.0698
  328POPS   C4A 5755   0.843   0.937   7.017  0.1081  0.2969 -0.0502
  328POPS   C1B 5756  11.816   0.578   6.175  0.1254  0.1667  0.2673
  328POPS   C2B 5757  11.429   0.860   6.350 -0.3557 -0.0755 -0.1818
  328POPS   D3B 5758  11.094   0.645   6.564 -0.0483  0.1030  0.0707
  328POPS   C4B 5759  11.118   0.484   6.953 -0.2968  0.2611 -0.2771
  328POPS   C5B 5760  11.142   0.212   7.367  0.0697 -0.0480 -0.1177
  329POPS   CNO 5761   6.814   3.690   5.203 -0.0624  0.1835  0.0896
  329POPS   CNP 5762   6.690   3.840   5.249  0.1298  0.2226  0.4998
  329POPS   CNM 5763   6.963   3.559   5.226 -0.1123  0.1905  0.4900
  329POPS   PO4 5764   6.781   3.360   5.337 -0.1344 -0.2134 -0.0461
  329POPS   GL1 5765   6.869   3.488   5.664  0.4307  0.2797  0.2656
  329POPS   G1P 5766   6.995   3.458   5.612  0.5342  0.5585  0.3412
  329POPS   G1M 5767   6.919   3.360   5.692  0.2484  0.1330 -0.0562
  329POPS   GL2 5768   6.822   3.736   5.700 -0.0029 -0.0474 -0.3607
  329POPS   G2P 5769   6.729   3.771   5.798 -0.0114  0.2513 -0.4682
  329POPS   G2M 5770   6.864   3.856   5.760 -0.1657 -0.0668 -0.2037
  329POPS   C1A 5771   6.802   4.056   5.797  0.3678  0.0784  0.2119
  329POPS   C2A 5772   6.714   4.316   6.026  0.0559 -0.1591  0.2115
  329POPS   C3A 5773   6.409   4.636   6.356 -0.1610  0.0582 -0.0324
  329POPS   C4A 5774   6.211   5.037   6.186  0.1943 -0.1257  0.1608
  329POPS   C1B 5775   7.119   3.519   6.085 -0.3045  0.0427 -0.1542
  329POPS   C2B 5776   7.432   3.692   6.436  0.0069 -0.1778 -0.2177
  329POPS   D3B 5777   7.841   3.781   6.787 -0.2265 -0.1781  0.2078
  329POPS   C4B 5778   8.094   3.357   6.852 -0.1163  0.1079 -0.1693
  329POPS   C5B 5779   8.502   3.368   6.946  0.1182  0.1280 -0.0080
  330POPS   CNO 5780   7.645   1.117   4.881 -0.1705 -0.0471 -0.8504
  330POPS   CNP 5781   7.759   0.972   4.803  0.1356 -0.4072  0.1806
  330POPS   CNM 5782   7.454   1.133   4.938  0.1917 -0.1586  0.6150
  330POPS   PO4 5783   7.590   1.310   5.132  0.0902 -0.0452  0.1692
  330POPS   GL1 5784   7.746   1.429   5.456  0.0668 -0.4350  0.1856
  330POPS   G1P 5785   7.678   1.312   5.418 -0.0987 -0.4902  0.6174
  330POPS   G1M 5786   7.630   1.483   5.399  0.2658 -0.1978 -0.0047
  330POPS   GL2 5787   7.492   1.327   5.675  0.5939  0.1047 -0.1915
  330POPS   G2P 5788   7.579   1.437   5.684  0.5171  0.1934 -0.4681
  330POPS   G2M 5789   7.439   1.388   5.789  0.0173  0.2620 -0.5253
  330POPS   C1A 5790   7.253   1.209   6.046 -0.0092 -0.1601 -0.0461
  330POPS   C2A 5791   7.005   1.180   6.354  0.4186  0.2310 -0.1805
  330POPS   C3A 5792   6.647   1.149   6.750 -0.2036  0.0426 -0.0579
  330POPS   C4A 5793   6.323   1.274   6.959  0.1367 -0.4518 -0.1703
  330POPS   C1B 5794   8.044   1.556   5.821 -0.3307 -0.2046 -0.2101
  330POPS   C2B 5795   8.070   1.796   6.197  0.0117  0.1429  0.0924
  330POPS   D3B 5796   7.749   2.001   6.538  0.0928  0.0669  0.1333
  330POPS   C4B 5797   8.059   2.404   6.560  0.1793  0.1241 -0.1098
  330POPS   C5B 5798   8.463   2.668   6.590 -0.2610  0.0452  0.0001
  331POPS   CNO 5799  11.022   7.922   5.112  0.0403 -0.3106 -0.8525
  331POPS   CNP 5800  11.206   7.905   5.036  0.2864 -0.4892 -0.2455
  331POPS   CNM 5801  10.873   7.806   5.177 -0.0155 -0.0725 -0.5439
  331POPS   PO4 5802  10.752   8.092   4.955 -0.0153 -0.1124  0.0436
  331POPS   GL1 5803  10.569   8.222   5.175  0.2812  0.0633 -0.4110
  331POPS   G1P 5804  10.473   8.323   5.179  0.2998  0.0726 -0.0827
  331POPS   G1M 5805  10.662   8.293   5.098  0.2727  0.3272 -0.1852
  331POPS   GL2 5806  10.510   7.991   5.461 -0.2277 -0.1864  0.5890
  331POPS   G2P 5807  10.574   7.879   5.515 -0.2079 -0.3726  0.1988
  331POPS   G2M 5808  10.424   7.900   5.522 -0.0887 -0.4506  0.4020
  331POPS   C1A 5809  10.522   7.793   5.773 -0.0335  0.3337 -0.0136
  331POPS   C2A 5810  10.784   7.612   6.216 -0.1164 -0.2832  0.0739
  331POPS   C3A 5811  10.687   7.264   6.429  0.1169  0.2577  0.3095
  331POPS   C4A 5812  10.664   6.972   6.726  0.0069 -0.3583  0.2967
  331POPS   C1B 5813  10.594   8.509   5.541 -0.1425 -0.0633 -0.0466
  331POPS   C2B 5814  10.819   8.728   5.905 -0.0227 -0.1060 -0.1398
  331POPS   D3B 5815  11.001   9.035   6.110  0.2191  0.1113  0.2330
  331POPS   C4B 5816  10.820   9.395   6.396 -0.0487  0.1987  0.1782
  331POPS   C5B 5817  10.617   9.700   6.677  0.0351  0.1555 -0.2076
  332POPS   CNO 5818   4.716   9.268   4.868  0.0283 -0.0238  0.2582
  332POPS   CNP 5819   4.858   9.137   4.818 -0.1379  0.0531 -0.4747
  332POPS   CNM 5820   4.705   9.397   5.020  0.5791  0.4297 -0.0710
  332POPS   PO4 5821   4.534   9.157   5.133  0.2391  0.2600 -0.0802
  332POPS   GL1 5822   4.621   8.973   5.417 -0.0788 -0.3438 -0.7256
  332POPS   G1P 5823   4.598   9.105   5.458  0.5930 -0.4212  0.0255
  332POPS   G1M 5824   4.504   9.047   5.395 -0.1590 -0.1657  0.1328
  332POPS   GL2 5825   4.676   8.651   5.551  0.2337 -0.2518  0.1621
  332POPS   G2P 5826   4.688   8.518   5.509 -0.0058 -0.1563 -0.2344
  332POPS   G2M 5827   4.568   8.567   5.519 -0.1125  0.1159  0.3201
  332POPS   C1A 5828   4.885   8.300   5.712 -0.0821 -0.1048 -0.0637
  332POPS   C2A 5829   5.252   8.092   5.917  0.3901 -0.1536  0.0486
  332POPS   C3A 5830   5.429   7.926   6.283 -0.1211 -0.4473  0.1802
  332POPS   C4A 5831   5.803   7.726   6.422  0.4303 -0.0821  0.3013
  332POPS   C1B 5832   4.732   8.994   5.894 -0.2407 -0.1489 -0.0966
  332POPS   C2B 5833   4.432   9.089   6.270 -0.2027  0.4247 -0.0604
  332POPS   D3B 5834   4.321   9.179   6.637 -0.0325  0.2989 -0.0758
  332POPS   C4B 5835   4.291   9.474   7.018 -0.0465 -0.0223 -0.0451
  332POPS   C5B 5836   4.106   9.672   7.375 -0.0528 -0.0341  0.1345
  333POPS   CNO 5837   0.954  11.729   5.151 -0.3681 -0.3537 -0.1874
  333POPS   CNP 5838   0.802  11.813   5.052 -0.1889  0.1464 -0.0515
  333POPS   CNM 5839   1.135  11.783   5.216 -0.2596 -0.8428 -0.0636
  333POPS   PO4 5840   1.096  11.594   5.334 -0.0563  0.0957  0.1003
  333POPS   GL1 5841   1.287  11.420   5.673 -0.2301  0.0010  0.0451
  333POPS   G1P 5842   1.292  11.487   5.795  0.2784 -0.2705  0.1861
  333POPS   G1M 5843   1.395  11.461   5.752 -0.0896 -0.0571 -0.1148
  333POPS   GL2 5844   1.241  11.099   5.570 -0.0267  0.1852  0.1312
  333POPS   G2P 5845   1.155  10.992   5.597  0.3919 -0.2924 -0.3108
  333POPS   G2M 5846   1.159  11.130   5.462 -0.0990 -0.2437  0.0573
  333POPS   C1A 5847   1.426  10.730   5.806 -0.0660 -0.0824 -0.0440
  333POPS   C2A 5848   1.480  10.548   6.208  0.0913  0.0989  0.1643
  333POPS   C3A 5849   1.530  10.256   6.570 -0.0719  0.3844 -0.4100
  333POPS   C4A 5850   1.748   9.851   6.781 -0.2199 -0.0629 -0.0789
  333POPS   C1B 5851   1.635  11.540   5.937 -0.0801  0.0678 -0.1110
  333POPS   C2B 5852   1.641  11.820   6.347  0.1354 -0.4040  0.0033
  333POPS   D3B 5853   1.239  11.886   6.368  0.0889 -0.0592  0.2882
  333POPS   C4B 5854   1.084  11.648   6.046 -0.1609 -0.1519 -0.0937
  333POPS   C5B 5855   0.826  11.336   5.913  0.0305 -0.1696 -0.0930
  334POPS   CNO 5856   7.254   3.463   5.279  0.1958  0.6000  0.5528
  334POPS   CNP 5857   7.054   3.458   5.273  0.2075  0.3851  0.0448
  334POPS   CNM 5858   7.365   3.299   5.302 -0.5417 -0.0646 -0.2485
  334POPS   PO4 5859   7.524   3.657   5.297  0.1160  0.0841 -0.1456
  334POPS   GL1 5860   7.453   3.621   5.675 -0.1579  0.3811  0.2234
  334POPS   G1P 5861   7.358   3.723   5.693 -0.0296  0.6487 -0.4354
  334POPS   G1M 5862   7.414   3.661   5.546 -0.1049 -0.0947  0.0503
  334POPS   GL2 5863   7.749   3.480   5.746 -0.1475 -0.3419  0.6772
  334POPS   G2P 5864   7.796   3.349   5.763  0.1243 -0.4180 -0.3227
  334POPS   G2M 5865   7.665   3.418   5.653  0.2002  0.3756 -0.2016
  334POPS   C1A 5866   7.581   3.287   6.086  0.1849  0.0163 -0.1404
  334POPS   C2A 5867   7.498   2.789   6.217 -0.1616  0.4050  0.1208
  334POPS   C3A 5868   7.594   2.501   6.569  0.0634 -0.1603  0.1446
  334POPS   C4A 5869   7.570   2.268   7.026  0.1021 -0.0048 -0.0798
  334POPS   C1B 5870   7.487   3.815   5.949  0.1479  0.0773  0.0541
  334POPS   C2B 5871   7.862   3.877   6.172 -0.0729 -0.1027  0.2995
  334POPS   D3B 5872   8.277   3.845   6.023 -0.3579  0.0777  0.0120
  334POPS   C4B 5873   8.527   3.488   6.206  0.0210 -0.0036  0.2391
  334POPS   C5B 5874   8.583   3.199   6.467  0.2301 -0.0074  0.2567
  335POPS   CNO 5875   0.761   0.134   4.854  0.0684  0.1580 -0.1057
  335POPS   CNP 5876   0.691   0.176   4.672  0.0472 -0.1082 -0.1605
  335POPS   CNM 5877   0.789   0.238   5.023  0.1799 -0.1541  0.0714
  335POPS   PO4 5878   0.965   0.061   5.184 -0.1259  0.0467 -0.0645
  335POPS   GL1 5879   0.915  -0.005   5.512 -0.0466 -0.2136  0.2228
  335POPS   G1P 5880   0.994   0.063   5.605  0.3291 -0.0489 -0.2058
  335POPS   G1M 5881   0.863   0.122   5.538 -1.1307 -0.5528 -0.0067
  335POPS   GL2 5882   1.026   0.216   5.730 -0.0811  0.0309  0.4470
  335POPS   G2P 5883   1.113   0.143   5.648 -0.0634  0.2137  0.3015
  335POPS   G2M 5884   1.109   0.299   5.654  0.2656 -0.1427  0.6225
  335POPS   C1A 5885   0.891   0.019   6.095 -0.0945 -0.3968 -0.0195
  335POPS   C2A 5886   0.932   0.033   6.606 -0.0382 -0.0089 -0.0311
  335POPS   C3A 5887   0.745   0.110   7.090 -0.1066 -0.2527  0.0917
  335POPS   C4A 5888   0.414   0.326   7.328  0.2000 -0.2013  0.2705
  335POPS   C1B 5889   0.705  11.860   5.745 -0.2437 -0.4070 -0.0080
  335POPS   C2B 5890   0.472  11.705   6.021  0.0005  0.0924 -0.2058
  335POPS   D3B 5891   0.172  11.722   6.281 -0.1952  0.0837  0.1112
  335POPS   C4B 5892  12.089  11.825   6.673 -0.0966 -0.1188  0.1728
  335POPS   C5B 5893  11.816  12.123   6.913 -0.0937  0.0176  0.2784
  336POPS   CNO 5894   3.794   3.813   5.404 -0.2937 -0.1563  0.0215
  336POPS   CNP 5895   3.977   3.829   5.324 -0.2342 -0.4090  0.1042
  336POPS   CNM 5896   3.598   3.842   5.382 -0.2642 -0.0332 -0.0901
  336POPS   PO4 5897   3.589   3.664   5.614  0.0178  0.0353  0.1557
  336POPS   GL1 5898   3.293   3.560   5.778  0.0702 -0.0021  0.0401
  336POPS   G1P 5899   3.333   3.650   5.877  0.5335  0.1625 -0.2796
  336POPS   G1M 5900   3.425   3.516   5.770  0.0353 -0.0820 -0.1235
  336POPS   GL2 5901   3.384   3.600   6.109  0.3060 -0.4630  0.4250
  336POPS   G2P 5902   3.370   3.736   6.138 -0.4371 -0.4618  0.1719
  336POPS   G2M 5903   3.340   3.671   6.221  0.4417  0.3281  0.0118
  336POPS   C1A 5904   3.375   3.245   6.222  0.0122 -0.1918 -0.0245
  336POPS   C2A 5905   3.150   3.094   6.445  0.1717  0.0527  0.1362
  336POPS   C3A 5906   3.015   3.240   6.812  0.1537  0.0393 -0.0020
  336POPS   C4A 5907   2.692   3.063   7.018  0.1126  0.0937  0.1311
  336POPS   C1B 5908   2.845   3.318   5.916 -0.1539  0.2743 -0.0472
  336POPS   C2B 5909   2.388   3.082   5.947  0.3597  0.0774  0.0759
  336POPS   D3B 5910   2.050   2.799   5.746  0.1537  0.1523 -0.3208
  336POPS   C4B 5911   1.586   2.941   5.929 -0.0461 -0.0919  0.3760
  336POPS   C5B 5912   1.489   2.990   6.424  0.0934  0.1068 -0.2131
  337POPS   CNO 5913   9.769   5.807   4.867  0.7178  0.0814  0.0799
  337POPS   CNP 5914   9.758   5.868   4.677 -0.4374 -0.2868 -0.0098
  337POPS   CNM 5915   9.776   5.907   5.040 -0.0369  0.1618  0.0788
  337POPS   PO4 5916   9.984   5.668   5.116  0.0701 -0.1299 -0.0321
  337POPS   GL1 5917   9.987   5.871   5.505  0.2405  0.0669  0.1830
  337POPS   G1P 5918   9.921   5.867   5.629  0.0119  0.0395  0.0610
  337POPS   G1M 5919   9.863   5.858   5.442 -0.0511  0.2499  0.6807
  337POPS   GL2 5920   9.858   5.661   5.796 -0.2602  0.3502  0.0046
  337POPS   G2P 5921   9.863   5.798   5.770 -0.0560  0.2957 -0.2607
  337POPS   G2M 5922   9.940   5.671   5.683 -0.1688 -0.2547  0.0007
  337POPS   C1A 5923   9.933   5.603   6.181  0.0408 -0.3159 -0.0568
  337POPS   C2A 5924   9.648   5.393   6.436  0.1965  0.0574  0.1429
  337POPS   C3A 5925   9.181   5.203   6.473  0.1558 -0.1563 -0.2503
  337POPS   C4A 5926   8.745   5.058   6.358  0.0501 -0.0509  0.0512
  337POPS   C1B 5927  10.295   5.797   5.849 -0.4124 -0.1254  0.3124
  337POPS   C2B 5928  10.487   5.644   6.165  0.1554 -0.1065  0.3389
  337POPS   D3B 5929  10.442   5.375   6.552 -0.0524  0.1055  0.0897
  337POPS   C4B 5930  10.367   5.300   6.922 -0.2116  0.0623  0.1312
  337POPS   C5B 5931  10.263   5.231   7.270  0.0358 -0.0635  0.0026
  338POPS   CNO 5932   9.810   1.188   5.136 -0.2754  0.0373  0.2373
  338POPS   CNP 5933   9.676   1.129   5.272 -0.5661  0.1748  0.0161
  338POPS   CNM 5934   9.999   1.135   5.173 -0.3740 -0.2183  0.3822
  338POPS   PO4 5935  10.014   1.420   5.107 -0.2341 -0.0102 -0.1902
  338POPS   GL1 5936  10.036   1.569   5.396 -0.0796 -0.1854 -0.0340
  338POPS   G1P 5937  10.031   1.633   5.521  0.2632 -0.8882  0.3690
  338POPS   G1M 5938   9.915   1.633   5.429 -0.0078 -0.0199 -0.0835
  338POPS   GL2 5939   9.707   1.495   5.560 -0.0726 -0.2034 -0.1110
  338POPS   G2P 5940   9.707   1.486   5.420  0.0724 -0.0465 -0.1226
  338POPS   G2M 5941   9.691   1.628   5.600  0.3372 -0.2781  0.3436
  338POPS   C1A 5942   9.804   1.663   5.964  0.0175 -0.1310  0.0774
  338POPS   C2A 5943  10.023   1.773   6.231 -0.2382  0.0442 -0.0504
  338POPS   C3A 5944  10.252   1.651   6.561 -0.1243  0.1570  0.0511
  338POPS   C4A 5945  10.427   1.357   6.711  0.0207  0.0790 -0.1812
  338POPS   C1B 5946   9.969   1.945   5.575  0.2996  0.1187 -0.2920
  338POPS   C2B 5947  10.001   2.279   5.957 -0.2884 -0.1118 -0.1675
  338POPS   D3B 5948  10.151   2.673   6.044  0.1342  0.1107  0.1285
  338POPS   C4B 5949  10.302   3.033   6.193  0.0903 -0.1597 -0.2447
  338POPS   C5B 5950  10.102   3.442   6.003  0.0271 -0.1374  0.2137
  339PW       W 5951  10.964  10.688   9.942  0.1624  0.1494 -0.1640
  339PW      WP 5952  10.873  10.615   9.865  0.0903  0.0481  0.0124
  339PW      WM 5953  11.046  10.577   9.917 -0.1983 -0.1620 -0.0152
  340PW       W 5954   2.814  10.385   1.344  0.0101  0.1677  0.0516
  340PW      WP 5955   2.816  10.255   1.396 -0.5033  0.2054  0.1862
  340PW      WM 5956   2.847  10.408   1.479 -0.2799 -0.2099  0.1963
  341PW       W 5957   8.088  10.829   1.331 -0.4060  0.6417  0.7112
  341PW      WP 5958   8.161  10.822   1.451 -0.0714 -0.1474  0.4981
  341PW      WM 5959   8.059  10.875   1.202 -0.5931 -0.2852  0.3861
  342PW       W 5960   5.896  11.990  10.553  0.0717  0.4428 -0.3435
  342PW      WP 5961   5.758  12.011  10.563 -0.0749 -0.5092  0.1722
  342PW      WM 5962   5.800  11.935  10.468  0.2095 -0.1112 -0.1644
  343PW       W 5963   2.611   7.396  11.581  0.3871 -0.2335 -0.1768
  343PW      WP 5964   2.727   7.459  11.626  0.3594 -0.3773  0.1081
  343PW      WM 5965   2.474   7.374  11.599  0.4009  0.1712  0.6629
  344PW       W 5966   3.075   3.175   3.156  0.0366 -0.0773  0.1087
  344PW      WP 5967   3.120   3.190   3.024 -0.3634 -0.2410 -0.0538
  344PW      WM 5968   3.023   3.201   3.283  0.0855 -0.2747  0.1708
  345PW       W 5969  10.989   1.917   4.592  0.0489 -0.1036 -0.0814
  345PW      WP 5970  11.107   1.916   4.668 -0.0059  0.5439  0.0463
  345PW      WM 5971  10.958   2.054   4.595  0.0161 -0.1124  0.3721
  346PW       W 5972   0.806  11.321  10.442  0.3816  0.1405  0.1753
  346PW      WP 5973   0.911  11.272  10.363  0.2796  0.5563 -0.2436
  346PW      WM 5974   0.744  11.196  10.457 -0.1037  0.3804  0.2908
  347PW       W 5975   0.464  12.088  12.907 -0.1531  0.1042  0.7077
  347PW      WP 5976   0.408  12.212  12.942  0.0130  0.4879 -0.2466
  347PW      WM 5977   0.466  12.016  12.788  0.1634  0.4448  0.4968
  348PW       W 5978  10.440   8.373   1.706 -0.0085 -0.0667  0.1472
  348PW      WP 5979  10.476   8.287   1.601  0.2543  0.1628  0.0453
  348PW      WM 5980  10.536   8.464   1.750 -0.1099  0.2381 -0.2325
  349PW       W 5981   5.286   3.242  12.603 -0.1365  0.0003 -0.1875
  349PW      WP 5982   5.342   3.352  12.536 -0.2576 -0.0854 -0.4314
  349PW      WM 5983   5.245   3.138  12.520  0.3756 -0.4412  0.0787
  350PW       W 5984   4.210   6.737   8.465 -0.1379 -0.0228 -0.0835
  350PW      WP 5985   4.195   6.761   8.328  0.2142  0.6026 -0.0332
  350PW      WM 5986   4.105   6.730   8.557  0.0792 -0.2377  0.1560
  351PW       W 5987  10.590   7.521  12.593 -0.0561 -0.1006  0.2666
  351PW      WP 5988  10.457   7.496  12.556 -0.0787 -0.1242  0.3623
  351PW      WM 5989  10.620   7.657  12.583 -0.3824 -0.0578 -0.5259
  352PW       W 5990   9.745   0.633  11.704 -0.2973 -0.1624 -0.0953
  352PW      WP 5991   9.764   0.730  11.605 -0.1442  0.0607  0.1481
  352PW      WM 5992   9.852   0.672  11.786 -0.3342 -0.2042 -0.0270
  353PW       W 5993   9.866   9.324   8.883  0.5017 -0.1338  0.0633
  353PW      WP 5994   9.750   9.403   8.874  0.5147 -0.0960  0.2081
  353PW      WM 5995   9.876   9.238   8.773 -0.2234 -0.1031 -0.0554
  354PW       W 5996   8.282  10.601   0.095 -0.2534 -0.2748  0.0725
  354PW      WP 5997   8.380  10.685   0.149 -0.2595 -0.1583 -0.0940
  354PW      WM 5998   8.155  10.548   0.069 -0.1825 -0.3471 -0.1420
  355PW       W 5999   2.305   6.709   9.955  0.0941  0.0098 -0.3427
  355PW      WP 6000   2.318   6.571   9.970 -0.1652  0.0068 -0.1171
  355PW      WM 6001   2.273   6.796  10.060  0.6111  0.0375 -0.1935
  356PW       W 6002   8.394   5.456   4.372  0.0539  0.1558  0.0357
  356PW      WP 6003   8.384   5.517   4.497 -0.5253 -0.4181  0.2974
  356PW      WM 6004   8.390   5.547   4.265 -0.0185  0.1992  0.0751
  357PW       W 6005   9.199   4.706   2.390  0.2940 -0.3109 -0.1523
  357PW      WP 6006   9.162   4.822   2.322  0.2850 -0.2418 -0.0308
  357PW      WM 6007   9.147   4.719   2.520 -0.0991  0.2452 -0.3496
  358PW       W 6008   6.248   2.721   2.510 -0.3298  0.2677  0.0355
  358PW      WP 6009   6.180   2.629   2.429  0.3802 -0.2004 -0.0717
  358PW      WM 6010   6.218   2.749   2.644  0.1778 -0.1004  0.2424
  359PW       W 6011   7.238   7.717   0.408 -0.0941 -0.2574 -0.0425
  359PW      WP 6012   7.100   7.741   0.402 -0.0138  0.2108 -0.1948
  359PW      WM 6013   7.247   7.747   0.544  0.2140 -0.2832 -0.0535
  360PW       W 6014   3.955   7.052   1.771  0.0538 -0.1354  0.1721
  360PW      WP 6015   3.955   6.942   1.858 -0.2144 -0.2105  0.0821
  360PW      WM 6016   4.064   6.976   1.729  0.4204  0.1954  0.4758
  361PW       W 6017   5.810   9.784   0.812  0.1676 -0.6984 -0.1800
  361PW      WP 6018   5.776   9.815   0.680 -0.1047  0.0181  0.0348
  361PW      WM 6019   5.785   9.862   0.925  0.3187 -0.6869 -0.1549
  362PW       W 6020   8.952   2.490   3.310 -0.0937  0.1018 -0.2309
  362PW      WP 6021   8.911   2.405   3.206  0.2590 -0.4707  0.0735
  362PW      WM 6022   8.939   2.620   3.359 -0.0170 -0.2292  0.7653
  363PW       W 6023   0.830   1.385  11.951  0.4972  0.0473  0.0780
  363PW      WP 6024   0.783   1.279  12.031 -0.2257  0.4780  0.2787
  363PW      WM 6025   0.871   1.265  11.892 -0.0161  0.0283 -0.2700
  364PW       W 6026   4.141   0.764   9.979  0.1907  0.0214  0.2547
  364PW      WP 6027   4.279   0.746   9.960  0.1556 -0.0551  0.0517
  364PW      WM 6028   4.100   0.638   9.933  0.0138 -0.0339  0.5485
  365PW       W 6029   8.821   4.390  12.319 -0.1112  0.4962 -0.0196
  365PW      WP 6030   8.772   4.488  12.406 -0.3379  0.2838  0.0953
  365PW      WM 6031   8.807   4.264  12.260 -0.3384  0.1226  0.7648
  366PW       W 6032   7.210   7.220   3.474  0.0283 -0.0150  0.2492
  366PW      WP 6033   7.178   7.308   3.370  0.2177 -0.7323 -0.4654
  366PW      WM 6034   7.299   7.116   3.446  0.1700  0.0603  0.4130
  367PW       W 6035  12.087  11.217  12.436 -0.0524  0.0092  0.0615
  367PW      WP 6036  12.061  11.142  12.321 -0.0476  0.0093  0.0606
  367PW      WM 6037  12.103  11.355  12.420 -0.3748  0.0280 -0.1375
  368PW       W 6038   7.654   6.442   1.424 -0.0853 -0.4209  0.3610
  368PW      WP 6039   7.583   6.329   1.381 -0.4153  0.0217 -0.3431
  368PW      WM 6040   7.789   6.457   1.457 -0.0215  0.1465 -0.0873
  369PW       W 6041   2.090   5.342   2.659 -0.2487 -0.3474 -0.1041
  369PW      WP 6042   2.113   5.306   2.526  0.1194  0.1180 -0.1799
  369PW      WM 6043   2.003   5.238   2.695 -0.0742 -0.2530  0.6755
  370PW       W 6044   0.604   5.749   1.384 -0.0494 -0.2076 -0.2789
  370PW      WP 6045   0.476   5.721   1.333 -0.0724 -0.2528 -0.1968
  370PW      WM 6046   0.726   5.746   1.314  0.3294  0.1671  0.3174
  371PW       W 6047   1.162   4.375   3.779 -0.0476 -0.0794 -0.8794
  371PW      WP 6048   1.255   4.273   3.763  0.3194  0.1069 -0.1329
  371PW      WM 6049   1.031   4.366   3.829  0.1205 -0.0889 -0.4263
  372PW       W 6050   7.866   9.871   8.112  0.0214 -0.0015 -0.2337
  372PW      WP 6051   7.732   9.900   8.139  0.1685  0.2999  0.2341
  372PW      WM 6052   7.867   9.783   8.221 -0.7768  0.3344  0.0829
  373PW       W 6053   7.565  11.138   2.151  0.0661  0.0117 -0.0023
  373PW      WP 6054   7.476  11.206   2.067  0.0849  0.3853  0.2688
  373PW      WM 6055   7.690  11.138   2.088  0.0716  0.2447  0.0047
  374PW       W 6056   0.566   8.561   2.892 -0.1021  0.0630  0.3316
  374PW      WP 6057   0.695   8.595   2.849 -0.1312  0.3811  0.4773
  374PW      WM 6058   0.617   8.499   3.006 -0.1774 -0.1097  0.2718
  375PW       W 6059   3.837   8.317   4.304  0.1373  0.2424 -0.1798
  375PW      WP 6060   3.955   8.311   4.379  0.0711  0.1373 -0.0822
  375PW      WM 6061   3.783   8.444   4.281  0.6860  0.5306  0.0270
  376PW       W 6062  10.711   1.999  11.510  0.4328 -0.1892 -0.0978
  376PW      WP 6063  10.777   1.966  11.629  0.1442 -0.1675  0.0713
  376PW      WM 6064  10.780   1.932  11.407  0.2891 -0.0214 -0.3076
  377PW       W 6065   6.141   3.023   1.659 -0.0930 -0.2490  0.1862
  377PW      WP 6066   6.193   3.100   1.555 -0.2008 -0.4484 -0.0194
  377PW      WM 6067   6.052   2.926   1.610 -0.3076  0.0610 -0.0535
  378PW       W 6068   1.215   7.374   3.399 -0.2168  0.3980 -0.1022
  378PW      WP 6069   1.308   7.339   3.497  0.0077 -0.5120 -0.5819
  378PW      WM 6070   1.165   7.491   3.340 -0.4113  0.2754 -0.1854
  379PW       W 6071   7.369   4.005   8.364 -0.7618  0.1586  0.2685
  379PW      WP 6072   7.332   3.874   8.330 -0.1208  0.1874 -0.7458
  379PW      WM 6073   7.459   3.963   8.463 -0.1057  0.4548 -0.1650
  380PW       W 6074   5.531   7.658  10.514  0.0455  0.3130 -0.0954
  380PW      WP 6075   5.402   7.640  10.565  0.2661  0.1888  0.4566
  380PW      WM 6076   5.519   7.794  10.544 -0.2839  0.2940 -0.1267
  381PW       W 6077  11.927   6.517  11.093  0.4654  0.0973 -0.0367
  381PW      WP 6078  12.015   6.432  11.024  0.0441 -0.1479 -0.2926
  381PW      WM 6079  11.831   6.609  11.050  0.1090 -0.0319  0.4484
  382PW       W 6080   4.076   5.516   4.238 -0.3480 -0.0291 -0.0300
  382PW      WP 6081   4.168   5.410   4.242  0.1913  0.3893 -0.5441
  382PW      WM 6082   4.066   5.462   4.367  0.1873 -0.3409 -0.1027
  383PW       W 6083   8.412   6.490  11.141  0.5017  0.5192  0.4561
  383PW      WP 6084   8.361   6.584  11.051  0.1870 -0.0283  0.0272
  383PW      WM 6085   8.295   6.425  11.185  0.4877  0.4825  0.3650
  384PW       W 6086   6.082   5.977   4.230 -0.1625 -0.2967  0.1595
  384PW      WP 6087   6.032   6.071   4.321 -0.0354 -0.0548 -0.0144
  384PW      WM 6088   6.171   6.063   4.163 -0.5229 -0.3379 -0.4046
  385PW       W 6089  10.669   5.011  11.498 -0.1373 -0.0283 -0.3212
  385PW      WP 6090  10.683   5.148  11.520  0.4845 -0.0716 -0.3720
  385PW      WM 6091  10.539   4.975  11.459 -0.0053 -0.5721 -0.3046
  386PW       W 6092   5.669  10.949   2.503  0.3064  0.5779 -0.2789
  386PW      WP 6093   5.645  11.020   2.621 -0.2860 -0.1720  0.0947
  386PW      WM 6094   5.542  11.007   2.513  0.0060 -0.0553 -0.2331
  387PW       W 6095   1.516   5.795   0.346 -0.1279 -0.1925 -0.0387
  387PW      WP 6096   1.591   5.681   0.377  0.1750 -0.0235 -0.1317
  387PW      WM 6097   1.548   5.891   0.249  0.2413 -0.4763 -0.2115
  388PW       W 6098   8.138   7.997  10.923 -0.3075  0.1923  0.2266
  388PW      WP 6099   8.241   7.953  11.006  0.0264 -0.2063 -0.3632
  388PW      WM 6100   8.036   8.072  10.863 -0.1852  0.2329  0.0660
  389PW       W 6101   5.096   5.817   4.548 -0.2825  0.1357 -0.1982
  389PW      WP 6102   4.998   5.916   4.565 -0.0636  0.3264 -0.0156
  389PW      WM 6103   4.999   5.716   4.545  0.0793 -0.2371  0.1045
  390PW       W 6104   4.993   4.505  10.398 -0.2002 -0.2200  0.3689
  390PW      WP 6105   4.947   4.467  10.272  0.0416  0.2126  0.1383
  390PW      WM 6106   5.113   4.576  10.414 -0.1919 -0.1864  0.1711
  391PW       W 6107   7.026  10.155   1.536  0.1861  0.0175  0.6912
  391PW      WP 6108   6.932  10.051   1.527  0.2992 -0.0589  0.2695
  391PW      WM 6109   7.027  10.283   1.481  0.3888 -0.1117  0.3785
  392PW       W 6110   5.278   5.222  12.582  0.2138  0.0466 -0.0374
  392PW      WP 6111   5.301   5.128  12.683 -0.0502 -0.2262 -0.2201
  392PW      WM 6112   5.237   5.097  12.533 -0.1178  0.0411  0.2426
  393PW       W 6113   3.674   4.548  10.550 -0.3182  0.1810  0.0421
  393PW      WP 6114   3.631   4.587  10.422 -0.3142  0.3427  0.0895
  393PW      WM 6115   3.753   4.638  10.623  0.1372 -0.0023 -0.2006
  394PW       W 6116   7.345   2.871   4.318  0.0661 -0.5517  0.1009
  394PW      WP 6117   7.464   2.933   4.277 -0.0727 -0.0321  0.4271
  394PW      WM 6118   7.345   2.834   4.453  0.1766 -0.1498  0.2195
  395PW       W 6119   6.308   4.111  10.385  0.3779  0.1871  0.1652
  395PW      WP 6120   6.229   4.075  10.275  0.5352 -0.0468  0.1257
  395PW      WM 6121   6.282   3.976  10.410  0.0644  0.2149  0.0168
  396PW       W 6122   5.807  11.705   8.583 -0.0888 -0.1493 -0.2440
  396PW      WP 6123   5.913  11.677   8.671  0.3385 -0.0694 -0.7113
  396PW      WM 6124   5.796  11.843   8.559  0.2319 -0.0108  0.3097
  397PW       W 6125   3.745   7.765   4.882  0.2937 -0.5438 -0.3569
  397PW      WP 6126   3.784   7.672   4.978 -0.5077 -0.4637  0.0898
  397PW      WM 6127   3.610   7.747   4.852 -0.0330 -0.2042  0.7138
  398PW       W 6128   4.693  10.000   3.912  0.1744 -0.1310 -0.0973
  398PW      WP 6129   4.554   9.998   3.903  0.1366  0.4465  0.1849
  398PW      WM 6130   4.747   9.935   4.024 -0.0506 -0.4782 -0.1810
  399PW       W 6131   8.492   9.164   9.439 -0.1320 -0.2175 -0.3384
  399PW      WP 6132   8.555   9.042   9.412  0.0465 -0.2617  0.2204
  399PW      WM 6133   8.471   9.153   9.577 -0.2563 -0.3445 -0.3656
  400PW       W 6134   4.496   5.322   1.171  0.1010  0.1054  0.1056
  400PW      WP 6135   4.459   5.372   1.296 -0.1934  0.0845  0.0308
  400PW      WM 6136   4.561   5.422   1.098 -0.0969  0.0657 -0.1307
  401PW       W 6137   3.752   4.288   1.497  0.3260 -0.0396 -0.5249
  401PW      WP 6138   3.834   4.373   1.423  0.3016  0.3533 -0.1237
  401PW      WM 6139   3.765   4.162   1.557 -0.7671 -0.0651 -0.2244
  402PW       W 6140  10.286   3.809  10.717 -0.2763 -0.0843  0.1180
  402PW      WP 6141  10.415   3.820  10.664 -0.1383 -0.1496  0.4316
  402PW      WM 6142  10.265   3.710  10.620 -0.3678 -0.4186  0.4651
  403PW       W 6143   7.836   1.192  10.362 -0.2364 -0.5724 -0.0664
  403PW      WP 6144   7.942   1.161  10.447  0.3985 -0.3598 -0.7318
  403PW      WM 6145   7.914   1.178  10.247 -0.0771  0.5006 -0.1438
  404PW       W 6146   0.758  10.139  10.897 -0.3728 -0.2528 -0.2616
  404PW      WP 6147   0.870  10.074  10.844 -0.0552  0.3717 -0.4052
  404PW      WM 6148   0.728  10.079  10.774  0.4937 -0.5251 -0.3738
  405PW       W 6149   3.942   7.670  12.042  0.3486 -0.4654  0.4123
  405PW      WP 6150   4.026   7.697  11.933 -0.2814 -0.0946 -0.0153
  405PW      WM 6151   3.964   7.789  12.113 -0.0399  0.2446 -0.5412
  406PW       W 6152   6.144   5.612  12.302  0.0455 -0.1047  0.2452
  406PW      WP 6153   6.244   5.648  12.211 -0.4497  0.4003 -0.1351
  406PW      WM 6154   6.048   5.545  12.378 -0.2980 -0.0413 -0.1162
  407PW       W 6155  10.966   7.740   3.560  0.2609 -0.2813 -0.1672
  407PW      WP 6156  10.867   7.756   3.463  0.1991  0.3077 -0.0265
  407PW      WM 6157  11.043   7.842   3.505  0.2694 -0.1798  0.0266
  408PW       W 6158   6.510   6.548   9.972  0.2576 -0.1333 -0.1663
  408PW      WP 6159   6.600   6.453   9.922  0.4101  0.0191 -0.1861
  408PW      WM 6160   6.472   6.546  10.107 -0.2097 -0.0098 -0.2880
  409PW       W 6161   6.454   1.531   3.795  0.0773  0.3330  0.0597
  409PW      WP 6162   6.441   1.573   3.928  0.3386  0.4324  0.0551
  409PW      WM 6163   6.562   1.451   3.757 -0.0765  0.1072  0.0825
  410PW       W 6164  10.732   2.854  12.051 -0.5548  0.0150  0.0830
  410PW      WP 6165  10.683   2.838  11.921 -0.6399  0.4017  0.0594
  410PW      WM 6166  10.871   2.839  12.059 -0.5540  0.0307  0.1043
  411PW       W 6167   1.854   9.818   2.778 -0.2902 -0.3939 -0.2381
  411PW      WP 6168   1.963   9.833   2.864  0.0698  0.0315 -0.7318
  411PW      WM 6169   1.977   9.883   2.764 -0.4737 -0.0802 -0.4822
  412PW       W 6170   1.000  11.234   1.164  0.4725 -0.0920 -0.1322
  412PW      WP 6171   0.960  11.362   1.203 -0.0274 -0.3892  0.4147
  412PW      WM 6172   0.892  11.188   1.087  0.2941  0.1616 -0.0398
  413PW       W 6173  11.182   1.297   2.575  0.5844 -0.1665 -0.1510
  413PW      WP 6174  11.141   1.166   2.598 -0.4800  0.0176 -0.6722
  413PW      WM 6175  11.247   1.412   2.622  0.1792  0.1114 -0.2437
  414PW       W 6176   3.530  10.749  12.940  0.0319  0.1449  0.4478
  414PW      WP 6177   3.463  10.631  12.906 -0.0375  0.3307 -0.1232
  414PW      WM 6178   3.592  10.851  13.014  0.0346  0.3614  0.1577
  415PW       W 6179  11.902   1.723  10.203 -0.1721  0.0270 -0.3151
  415PW      WP 6180  11.948   1.829  10.125  0.4208 -0.1152 -0.1787
  415PW      WM 6181  11.769   1.767  10.216 -0.1002  0.0799  0.5768
  416PW       W 6182   1.051   5.771   8.718  0.2030 -0.0748  0.5072
  416PW      WP 6183   1.117   5.684   8.806  0.6510 -0.2384  0.0403
  416PW      WM 6184   0.916   5.797   8.743  0.2148  0.0066  0.4887
  417PW       W 6185   5.602   0.990   8.347  0.0067 -0.1482 -0.0072
  417PW      WP 6186   5.593   0.937   8.476 -0.1471 -0.4905 -0.1542
  417PW      WM 6187   5.666   1.083   8.431 -0.3411  0.0444  0.0526
  418PW       W 6188  10.713   5.960   0.439 -0.0274  0.2839 -0.0561
  418PW      WP 6189  10.732   6.019   0.313  0.2089  0.3308  0.0001
  418PW      WM 6190  10.723   5.948   0.578  0.1104  0.7749 -0.0150
  419PW       W 6191  11.071  11.303   4.615  0.2006  0.0617 -0.2602
  419PW      WP 6192  11.015  11.415   4.677 -0.1684 -0.1464 -0.2067
  419PW      WM 6193  11.009  11.184   4.656 -0.4403  0.5874  0.4369
  420PW       W 6194   7.685   5.989   8.766 -0.2393  0.5982 -0.2291
  420PW      WP 6195   7.555   6.041   8.779 -0.5248 -0.0415 -0.3093
  420PW      WM 6196   7.714   5.962   8.900 -0.5048  0.1159 -0.2569
  421PW       W 6197   5.211   5.602   0.509 -0.2438  0.2734 -0.8764
  421PW      WP 6198   5.086   5.613   0.572  0.1601  0.4288 -0.0422
  421PW      WM 6199   5.304   5.540   0.425  0.5383 -0.2507  0.2494
  422PW       W 6200   4.145  10.524  12.998 -0.0568 -0.3165  0.3146
  422PW      WP 6201   4.184  10.510  12.864 -0.2780  0.5250  0.1283
  422PW      WM 6202   4.225  10.545  13.110  0.2396  0.0801  0.0427
  423PW       W 6203   7.602   1.354   4.455 -0.3946  0.0266  0.1502
  423PW      WP 6204   7.469   1.380   4.422 -0.2650  0.4620 -0.0676
  423PW      WM 6205   7.593   1.379   4.593 -0.0731 -0.5047  0.2833
  424PW       W 6206   8.721  11.180   2.908 -0.0866 -0.0010  0.5762
  424PW      WP 6207   8.620  11.275   2.921 -0.2620 -0.0369 -0.2469
  424PW      WM 6208   8.773  11.050   2.894 -0.2068 -0.0747  0.7958
  425PW       W 6209   2.651   6.337   3.795 -0.0157 -0.0048  0.0412
  425PW      WP 6210   2.763   6.417   3.765  0.0846  0.0339  0.4895
  425PW      WM 6211   2.688   6.207   3.759  0.0222 -0.0269  0.1592
  426PW       W 6212   7.222  11.408  11.959 -0.2219 -0.2323  0.3480
  426PW      WP 6213   7.108  11.472  11.909  0.2871  0.0540 -0.5374
  426PW      WM 6214   7.348  11.395  11.900 -0.1865  0.1675  0.3250
  427PW       W 6215   8.887  10.103  10.492  0.0306  0.0830  0.1494
  427PW      WP 6216   8.750  10.099  10.463 -0.0146 -0.0067  0.3669
  427PW      WM 6217   9.017  10.155  10.482  0.0881  0.0265  0.5162
  428PW       W 6218   9.847  10.508   0.306 -0.5185  0.0610  0.0469
  428PW      WP 6219   9.967  10.579   0.313 -0.1808 -0.4410 -0.3312
  428PW      WM 6220   9.713  10.473   0.327 -0.5586  0.1505 -0.0516
  429PW       W 6221   5.943   1.541   9.679  0.1652 -0.2593 -0.2635
  429PW      WP 6222   6.014   1.423   9.651  0.2998 -0.3721  0.4631
  429PW      WM 6223   5.854   1.464   9.754 -0.5326  0.3773 -0.3828
  430PW       W 6224  11.670   5.274  12.711  0.0911 -0.4510 -0.5208
  430PW      WP 6225  11.800   5.270  12.764 -0.1382 -0.7693  0.0637
  430PW      WM 6226  11.614   5.228  12.831 -0.1003  0.0746 -0.3975
  431PW       W 6227   2.860  11.034   2.019 -0.4645 -0.0695 -0.1141
  431PW      WP 6228   2.927  10.992   2.134 -0.1851  0.7307  0.0462
  431PW      WM 6229   2.783  11.138   1.967 -0.0297  0.1181 -0.4172
  432PW       W 6230  10.120   2.329   2.063  0.2597 -0.0201 -0.2681
  432PW      WP 6231   9.987   2.306   2.098  0.1722  0.6475 -0.0831
  432PW      WM 6232  10.131   2.315   1.924  0.4091  0.5075 -0.3236
  433PW       W 6233   4.623   2.707   8.850  0.3449  0.1338 -0.1015
  433PW      WP 6234   4.504   2.781   8.846 -0.1823 -0.6056  0.3878
  433PW      WM 6235   4.672   2.583   8.893 -0.0870 -0.0348 -0.0673
  434PW       W 6236   0.204   8.450   9.645 -0.1132  0.2970  0.1864
  434PW      WP 6237   0.108   8.497   9.735  0.1725 -0.0848  0.7134
  434PW      WM 6238   0.310   8.413   9.728 -0.0884 -0.0001  0.0299
  435PW       W 6239   9.186   7.827  10.594 -0.2273  0.2847 -0.1289
  435PW      WP 6240   9.266   7.716  10.623 -0.0882  0.3622 -0.2098
  435PW      WM 6241   9.080   7.844  10.503 -0.2813 -0.1202 -0.1521
  436PW       W 6242   0.781   6.497   9.108  0.1740 -0.3108  0.0691
  436PW      WP 6243   0.710   6.522   8.991 -0.0382 -0.3153  0.1940
  436PW      WM 6244   0.784   6.629   9.060  0.1323 -0.1560  0.4670
  437PW       W 6245  10.808   5.645   4.066 -0.2012  0.0489 -0.2050
  437PW      WP 6246  10.798   5.730   4.176 -0.0282 -0.0157 -0.1374
  437PW      WM 6247  10.788   5.510   4.033 -0.0227  0.0200 -0.1999
  438PW       W 6248   9.497   0.057   8.245  0.2731 -0.6331  0.3645
  438PW      WP 6249   9.532   0.115   8.367  0.3300  0.3877 -0.0886
  438PW      WM 6250   9.361   0.029   8.265 -0.0584  0.4604  0.0151
  439PW       W 6251   7.241   2.865   1.326 -0.2961  0.4484  0.2874
  439PW      WP 6252   7.233   2.739   1.264  0.4769  0.4977  0.0326
  439PW      WM 6253   7.368   2.921   1.309 -0.0428 -0.1308  0.1390
  440PW       W 6254   1.126   9.406   0.309  0.5964 -0.2630  0.2459
  440PW      WP 6255   1.030   9.343   0.228 -0.0244  0.5381  0.2993
  440PW      WM 6256   1.133   9.482   0.426  0.4073  0.2430 -0.0546
  441PW       W 6257   1.798   3.655  11.296 -0.1322  0.3640 -0.2277
  441PW      WP 6258   1.901   3.708  11.376 -0.1856 -0.1167  0.1836
  441PW      WM 6259   1.792   3.680  11.159  0.4426 -0.0228 -0.3408
  442PW       W 6260  10.283   7.972   4.170 -0.2889  0.2151  0.3860
  442PW      WP 6261  10.145   7.994   4.171 -0.3499 -0.1353  0.3687
  442PW      WM 6262  10.313   8.035   4.048 -0.3170 -0.0368  0.2442
  443PW       W 6263   8.988   4.311   0.124 -0.2632  0.5298  0.2232
  443PW      WP 6264   9.067   4.420   0.163 -0.1942  0.4041  0.4393
  443PW      WM 6265   9.072   4.292   0.014 -0.2986 -0.1749  0.2974
  444PW       W 6266  11.674   4.034   2.616 -0.2400  0.3909  0.0707
  444PW      WP 6267  11.746   4.107   2.712  0.1170 -0.0380  0.1451
  444PW      WM 6268  11.681   4.077   2.749  0.1503 -0.1171  0.2293
  445PW       W 6269   4.978  10.983   3.172  0.0411  0.1777  0.0623
  445PW      WP 6270   4.914  10.897   3.262  0.0968  0.2785  0.1989
  445PW      WM 6271   5.030  10.877   3.095 -0.3830  0.2398 -0.3342
  446PW       W 6272  11.248   2.272   3.184  0.2115  0.2775  0.0618
  446PW      WP 6273  11.287   2.392   3.244  0.3524  0.4520 -0.3630
  446PW      WM 6274  11.131   2.333   3.230 -0.0696 -0.3619  0.2626
  447PW       W 6275  11.917   8.607   0.140  0.3666 -0.2193 -0.0223
  447PW      WP 6276  11.848   8.728   0.132  0.1436 -0.3167  0.3241
  447PW      WM 6277  11.839   8.501   0.188 -0.0674  0.0459 -0.1089
  448PW       W 6278   4.883  11.787   5.124  0.1117  0.1239  0.3072
  448PW      WP 6279   4.914  11.921   5.097  0.2334  0.0221 -0.0920
  448PW      WM 6280   4.933  11.663   5.163 -0.5368 -0.2314  0.0916
  449PW       W 6281   6.314   6.349  10.793  0.3870 -0.2752 -0.0168
  449PW      WP 6282   6.365   6.225  10.751  0.3039 -0.3616  0.1333
  449PW      WM 6283   6.267   6.324  10.922 -0.0446  0.4297 -0.0117
  450PW       W 6284   4.839  12.074   1.915 -0.2770  0.1488  0.2178
  450PW      WP 6285   4.725  12.016   1.858 -0.0357 -0.1833  0.0609
  450PW      WM 6286   4.952  12.147   1.875 -0.2473 -0.1934 -0.3801
  451PW       W 6287   1.208   6.869   0.071 -0.0211 -0.0668  0.2244
  451PW      WP 6288   1.245   6.748   0.133 -0.3169 -0.3320 -0.0975
  451PW      WM 6289   1.301   6.964   0.116 -0.0664  0.0229  0.1298
  452PW       W 6290  10.996  12.070  12.830 -0.2308  0.0952 -0.8218
  452PW      WP 6291  10.860  12.097  12.846 -0.2967 -0.4609 -0.2556
  452PW      WM 6292  11.076  11.974  12.892 -0.3380  0.2500 -0.4254
  453PW       W 6293   1.430   0.325   3.357 -0.2193 -0.2873 -0.3720
  453PW      WP 6294   1.376   0.351   3.483  0.5416  0.3356 -0.1343
  453PW      WM 6295   1.554   0.337   3.293  0.0422 -0.2375  0.1227
  454PW       W 6296   5.006  10.872   3.774 -0.0165  0.1407  0.2954
  454PW      WP 6297   5.118  10.915   3.846  0.3670  0.1400 -0.2701
  454PW      WM 6298   4.913  10.945   3.698  0.2861  0.1898 -0.0430
  455PW       W 6299   0.233   8.956   3.590  0.0457  0.0464  0.1114
  455PW      WP 6300   0.119   9.012   3.531  0.2908  0.1624 -0.2713
  455PW      WM 6301   0.174   8.837   3.636  0.0793  0.1261  0.3704
  456PW       W 6302   0.800   9.270   9.895  0.0897 -0.0080 -0.5927
  456PW      WP 6303   0.730   9.218   9.785 -0.0592 -0.3349 -0.3517
  456PW      WM 6304   0.895   9.168   9.880  0.4115  0.1542  0.1304
  457PW       W 6305  11.507   1.927   9.647  0.1161  0.0749  0.0394
  457PW      WP 6306  11.548   1.818   9.570  0.6058 -0.0431  0.4367
  457PW      WM 6307  11.522   1.798   9.698  0.2205  0.1298  0.1514
  458PW       W 6308   8.687   1.922   9.731  0.0989 -0.0101  0.3447
  458PW      WP 6309   8.549   1.907   9.743  0.0633  0.0329  0.0311
  458PW      WM 6310   8.744   1.831   9.640  0.1579  0.3625 -0.0043
  459PW       W 6311  10.893   3.109   0.772  0.2211  0.0142 -0.1990
  459PW      WP 6312  10.999   3.182   0.826  0.0698  0.0309  0.0874
  459PW      WM 6313  10.871   2.971   0.776  0.2190  0.0221  0.2066
  460PW       W 6314   4.600   4.860  10.663 -0.0990 -0.0142 -0.2740
  460PW      WP 6315   4.484   4.832  10.736 -0.1978  0.2571 -0.3221
  460PW      WM 6316   4.572   4.986  10.607  0.0982  0.0204 -0.2979
  461PW       W 6317   3.757   0.730  11.208 -0.2418 -0.2486  0.1587
  461PW      WP 6318   3.846   0.752  11.314  0.0794  0.2450 -0.1878
  461PW      WM 6319   3.776   0.600  11.159  0.4758 -0.0470 -0.1726
  462PW       W 6320   9.342   4.767  11.072  0.0822  0.2979 -0.2677
  462PW      WP 6321   9.343   4.704  10.947  0.0955 -0.2749  0.0062
  462PW      WM 6322   9.386   4.897  11.042 -0.1450  0.3550 -0.3602
  463PW       W 6323   2.882   1.362  10.682  0.1602  0.0986  0.0278
  463PW      WP 6324   2.775   1.292  10.739 -0.2267  0.6026 -0.0493
  463PW      WM 6325   2.909   1.224  10.683 -0.1103  0.0198 -0.6341
  464PW       W 6326   3.635   9.032  12.917 -0.0324 -0.1801 -0.3163
  464PW      WP 6327   3.694   8.958  13.020  0.0010  0.7933  0.4388
  464PW      WM 6328   3.775   9.022  12.911 -0.0041  0.0156 -0.0672
  465PW       W 6329   2.669   1.318   1.359  0.0760  0.7849 -0.1266
  465PW      WP 6330   2.593   1.221   1.293  0.2404  0.3910  0.2432
  465PW      WM 6331   2.565   1.393   1.416 -0.1209  0.0355  0.5886
  466PW       W 6332   1.110   3.379  11.246 -0.3301 -0.0903 -0.2083
  466PW      WP 6333   1.059   3.462  11.146 -0.2019 -0.2666 -0.4249
  466PW      WM 6334   1.069   3.245  11.251  0.1957 -0.2579  0.0813
  467PW       W 6335   9.412   5.557   9.483  0.4260 -0.2252  0.1592
  467PW      WP 6336   9.380   5.421   9.471 -0.0071 -0.1105 -0.0915
  467PW      WM 6337   9.519   5.491   9.421  0.0584  0.0484 -0.8619
  468PW       W 6338  11.134   2.998   1.789  0.1747  0.7130 -0.3717
  468PW      WP 6339  11.030   2.982   1.697 -0.3814 -0.7546  0.3613
  468PW      WM 6340  11.152   3.137   1.795 -0.0445  0.7391 -0.2584
  469PW       W 6341   5.110  10.214  13.262  0.1188 -0.1401  0.2798
  469PW      WP 6342   5.122  10.309  13.364  0.5919 -0.3144  0.4003
  469PW      WM 6343   5.029  10.255  13.368 -0.4960  0.1861 -0.2738
  470PW       W 6344   5.868   0.292  13.337 -0.2040  0.0587  0.0594
  470PW      WP 6345   5.867   0.153  13.353 -0.4204  0.0517  0.0061
  470PW      WM 6346   5.919   0.422  13.321 -0.4668  0.1577 -0.0103
  471PW       W 6347   6.925   2.280   3.810  0.2095 -0.0868 -0.3555
  471PW      WP 6348   7.027   2.374   3.829 -0.1860  0.2718  0.1058
  471PW      WM 6349   6.792   2.310   3.778  0.2353  0.1336 -0.2681
  472PW       W 6350   3.929   9.066   3.629  0.1274  0.0376  0.1970
  472PW      WP 6351   3.840   8.993   3.709 -0.1862  0.6072  0.3942
  472PW      WM 6352   4.056   9.042   3.575 -0.1423  0.0333 -0.4907
  473PW       W 6353   5.460   1.038  11.631  0.0713 -0.2246  0.1120
  473PW      WP 6354   5.415   1.171  11.626  0.3417 -0.1200  0.3225
  473PW      WM 6355   5.405   0.936  11.709  0.2004 -0.3399  0.0532
  474PW       W 6356  10.690   8.947  11.641 -0.1245  0.1414 -0.2246
  474PW      WP 6357  10.725   8.857  11.540 -0.0529  0.2802 -0.3255
  474PW      WM 6358  10.574   9.007  11.692 -0.1032 -0.1139  0.1393
  475PW       W 6359   1.743  11.783   9.697 -0.0159  0.0993 -0.2401
  475PW      WP 6360   1.726  11.670   9.778 -0.2227  0.4758  0.2685
  475PW      WM 6361   1.683  11.721   9.587 -0.1014  0.2064 -0.2547
  476PW       W 6362  10.532   6.620   0.835  0.0897 -0.3441 -0.4056
  476PW      WP 6363  10.427   6.709   0.811  0.1462 -0.2324 -0.2445
  476PW      WM 6364  10.650   6.677   0.787  0.2693 -0.1118  0.2679
  477PW       W 6365   0.253   9.762  12.776  0.4005 -0.3195  0.0855
  477PW      WP 6366   0.377   9.825  12.790  0.2420  0.0693 -0.1706
  477PW      WM 6367   0.235   9.898  12.750  0.3506 -0.2652  0.3864
  478PW       W 6368   1.255   6.866  10.782 -0.2821 -0.2090  0.3401
  478PW      WP 6369   1.286   6.991  10.837 -0.1290 -0.0202 -0.1433
  478PW      WM 6370   1.286   6.731  10.804 -0.5850 -0.3256  0.0899
  479PW       W 6371   9.056   7.089  12.788 -0.1361 -0.0633  0.2459
  479PW      WP 6372   9.167   7.116  12.706 -0.4928  0.0682 -0.2109
  479PW      WM 6373   8.958   6.989  12.786  0.1266 -0.3714  1.0203
  480PW       W 6374   0.549   0.835  12.649  0.0137 -0.0270  0.2726
  480PW      WP 6375   0.597   0.827  12.518 -0.3943 -0.1963  0.1266
  480PW      WM 6376   0.596   0.916  12.754 -0.7559  0.3089  0.3896
  481PW       W 6377   6.171   8.909   9.281  0.2120 -0.0718  0.1982
  481PW      WP 6378   6.191   9.020   9.363  0.0366  0.2186 -0.1392
  481PW      WM 6379   6.086   8.812   9.226  0.3140  0.0139 -0.1199
  482PW       W 6380   7.022   5.501   9.848  0.0974  0.2259  0.2616
  482PW      WP 6381   7.016   5.527   9.711 -0.1222  0.0208  0.2292
  482PW      WM 6382   7.124   5.487   9.943 -0.1382 -0.2395  0.4634
  483PW       W 6383   3.565   5.771   0.820 -0.2303  0.3894  0.4295
  483PW      WP 6384   3.495   5.660   0.870  0.1114 -0.0472 -0.0038
  483PW      WM 6385   3.532   5.873   0.729 -0.1197  0.0663  0.0073
  484PW       W 6386   4.820   1.520   8.370  0.4347 -0.0620  0.0156
  484PW      WP 6387   4.744   1.576   8.266 -0.0322 -0.3006  0.2104
  484PW      WM 6388   4.886   1.465   8.480 -0.1418 -0.4578  0.1907
  485PW       W 6389   5.007   4.068  10.083  0.1080 -0.3798 -0.1359
  485PW      WP 6390   4.948   4.072   9.956 -0.5090  0.5120  0.1255
  485PW      WM 6391   5.126   4.070  10.010  0.0810 -0.4058 -0.1808
  486PW       W 6392   0.927   3.043   3.948 -0.1035 -0.2295  0.0771
  486PW      WP 6393   0.988   3.168   3.931  0.0065 -0.2851  0.0585
  486PW      WM 6394   0.964   3.011   3.817  0.2706  0.4192  0.0054
  487PW       W 6395   4.193   3.406   8.564  0.1752 -0.1100  0.5186
  487PW      WP 6396   4.143   3.537   8.576  0.0241 -0.1492  0.3517
  487PW      WM 6397   4.286   3.499   8.611  0.0201  0.2974  0.0688
  488PW       W 6398   6.789  11.222  11.356  0.2858 -0.0260 -0.0731
  488PW      WP 6399   6.693  11.192  11.259  0.2098 -0.0661  0.0144
  488PW      WM 6400   6.903  11.164  11.299  0.1876  0.2414 -0.5613
  489PW       W 6401   4.674   7.883   3.499  0.1177 -0.2134 -0.1403
  489PW      WP 6402   4.672   7.832   3.369  0.5386 -0.0617 -0.2159
  489PW      WM 6403   4.580   7.868   3.601 -0.1778  0.1705 -0.3445
  490PW       W 6404  10.545   0.421   0.850  0.0799 -0.1327  0.0629
  490PW      WP 6405  10.432   0.484   0.797  0.4179  0.0912 -0.4272
  490PW      WM 6406  10.645   0.348   0.914  0.1368  0.0634  0.2040
  491PW       W 6407   8.225  10.248   9.435 -0.0903 -0.0634  0.1495
  491PW      WP 6408   8.325  10.263   9.338 -0.0990  0.0026  0.1507
  491PW      WM 6409   8.116  10.330   9.405 -0.2079 -0.4287 -0.5250
  492PW       W 6410   0.319  10.767  13.317  0.5562 -0.1511  0.1499
  492PW      WP 6411   0.373  10.881  13.256  0.4943 -0.4037 -0.4050
  492PW      WM 6412   0.269  10.668  13.402 -0.0238 -0.0748 -0.0772
  493PW       W 6413   5.619   6.995   9.269  0.0951  0.5047  0.1839
  493PW      WP 6414   5.717   7.089   9.232  0.2850  0.0925 -0.4389
  493PW      WM 6415   5.505   7.071   9.297 -0.2700 -0.0194  0.1923
  494PW       W 6416   2.003   3.702   4.769 -0.4255  0.2804 -0.5475
  494PW      WP 6417   2.092   3.790   4.834 -0.1911 -0.4070  0.1301
  494PW      WM 6418   2.058   3.575   4.792 -0.3527  0.3400 -0.3787
  495PW       W 6419   1.956   9.566   4.519  0.5000 -0.1942  0.1182
  495PW      WP 6420   1.900   9.453   4.580  0.1546  0.0436  0.2601
  495PW      WM 6421   2.039   9.588   4.409  0.1479 -0.5147 -0.2276
  496PW       W 6422   4.175   1.728  13.214  0.2442  0.0945  0.0903
  496PW      WP 6423   4.301   1.668  13.197  0.0223 -0.2355 -0.6024
  496PW      WM 6424   4.261   1.838  13.205 -0.2144  0.4991  0.4668
  497PW       W 6425   3.481   1.627   3.666  0.1486  0.1619 -0.1402
  497PW      WP 6426   3.341   1.617   3.669  0.1515  0.1227  0.3278
  497PW      WM 6427   3.518   1.513   3.739  0.2620 -0.0080 -0.4545
  498PW       W 6428   6.736   0.781  10.553 -0.0143  0.2748  0.1148
  498PW      WP 6429   6.784   0.665  10.492 -0.7270  0.0304 -0.0296
  498PW      WM 6430   6.614   0.752  10.490  0.1145  0.0126 -0.0227
  499PW       W 6431   9.532   8.290   9.767 -0.0831  0.4297  0.3288
  499PW      WP 6432   9.668   8.318   9.789  0.0049  0.0228  0.3313
  499PW      WM 6433   9.566   8.161   9.727 -0.7565  0.1751  0.5246
  500PW       W 6434   2.803   9.520   3.678  0.0049 -0.0046 -0.3828
  500PW      WP 6435   2.690   9.436   3.683  0.1497 -0.1906  0.2933
  500PW      WM 6436   2.935   9.545   3.718 -0.0199 -0.1090 -0.2281
  501PW       W 6437   2.839   6.191  13.004  0.1740  0.1229  0.2220
  501PW      WP 6438   2.860   6.253  13.128  0.2024  0.2466  0.1555
  501PW      WM 6439   2.862   6.115  12.888 -0.2057  0.3587 -0.0173
  502PW       W 6440   8.588   0.809   2.713 -0.0564 -0.5045 -0.0659
  502PW      WP 6441   8.724   0.794   2.744  0.0820  0.4625 -0.0382
  502PW      WM 6442   8.463   0.854   2.757  0.2667  0.4442 -0.0123
  503PW       W 6443   4.920   3.362  12.948  0.0078  0.6113 -0.1256
  503PW      WP 6444   5.039   3.303  12.993 -0.1905  0.1655 -0.1679
  503PW      WM 6445   4.820   3.400  13.038 -0.1879  0.1376 -0.1277
  504PW       W 6446   2.014  11.898   1.222 -0.1825  0.1545 -0.0284
  504PW      WP 6447   2.005  12.020   1.289  0.2574  0.3156 -0.2370
  504PW      WM 6448   1.923  11.811   1.161 -0.0395 -0.0781  0.0835
  505PW       W 6449   2.809   1.881   1.409  0.6974 -0.1180  0.0125
  505PW      WP 6450   2.864   1.765   1.354  0.3007 -0.4194  0.2249
  505PW      WM 6451   2.797   1.879   1.549  0.4216  0.0736 -0.0041
  506PW       W 6452   4.132   3.588   9.060 -0.2651 -0.0358  0.1646
  506PW      WP 6453   4.070   3.713   9.048  0.3653  0.2960  0.1523
  506PW      WM 6454   4.189   3.593   9.187 -0.0953  0.2281  0.0826
  507PW       W 6455   5.248  10.182   4.367 -0.1578 -0.2406  0.4439
  507PW      WP 6456   5.121  10.139   4.325 -0.0294  0.1033 -0.3817
  507PW      WM 6457   5.158  10.253   4.447 -0.2962  0.1907 -0.0695
  508PW       W 6458   2.086   3.337   3.542 -0.1648 -0.4408 -0.6775
  508PW      WP 6459   2.177   3.279   3.631 -0.2871 -0.2402 -0.4145
  508PW      WM 6460   1.989   3.324   3.642 -0.0919  0.0970 -0.5189
  509PW       W 6461   5.482   1.511   0.397 -0.3813 -0.2173 -0.0478
  509PW      WP 6462   5.368   1.570   0.455  0.0453  0.0511  0.5706
  509PW      WM 6463   5.420   1.461   0.513 -0.4810 -0.0762 -0.0383
  510PW       W 6464   7.611   4.281   5.550  0.0732 -0.1840 -0.0572
  510PW      WP 6465   7.601   4.312   5.414 -0.0188  0.7164  0.1280
  510PW      WM 6466   7.490   4.281   5.620  0.0037  0.4495 -0.1536
  511PW       W 6467   4.554   1.563   0.978 -0.2635  0.1546 -0.0106
  511PW      WP 6468   4.549   1.477   1.088 -0.0432 -0.0828 -0.1804
  511PW      WM 6469   4.626   1.653   0.899  0.0071  0.0601  0.1227
  512PW       W 6470   9.291   6.603   4.922 -0.1375  0.1257  0.0576
  512PW      WP 6471   9.283   6.626   4.784  0.7262  0.7913  0.0773
  512PW      WM 6472   9.358   6.675   5.021  0.1823 -0.1692  0.0650
  513PW       W 6473   1.185   3.579   8.389 -0.1833  0.0802 -0.0259
  513PW      WP 6474   1.161   3.463   8.315  0.1396 -0.0623  0.0840
  513PW      WM 6475   1.274   3.631   8.484 -0.3170  0.1494  0.0634
  514PW       W 6476   9.576   9.598   2.988  0.5023  0.2264 -0.2229
  514PW      WP 6477   9.469   9.508   2.991  0.3730  0.3723 -0.3963
  514PW      WM 6478   9.696   9.538   3.030  0.1598 -0.4313 -0.1215
  515PW       W 6479  12.007  10.057  10.469 -0.4505 -0.0127  0.0273
  515PW      WP 6480  12.108   9.962  10.488  0.0667  0.4606 -0.2117
  515PW      WM 6481  12.022  10.007  10.339 -0.2284  0.2749 -0.0613
  516PW       W 6482   2.757   5.281  10.046  0.0972  0.0032 -0.1574
  516PW      WP 6483   2.804   5.413  10.051 -0.3568  0.1721 -0.0018
  516PW      WM 6484   2.765   5.312   9.910  0.0063  0.0790 -0.1463
  517PW       W 6485   3.206   0.923  11.001 -0.5675  0.0439 -0.3340
  517PW      WP 6486   3.109   0.827  11.031 -0.5307  0.2154  0.4362
  517PW      WM 6487   3.126   0.962  11.109  0.0881  0.1988  0.1194
  518PW       W 6488   3.929   8.403   0.903 -0.3544 -0.0263  0.4733
  518PW      WP 6489   3.790   8.393   0.891 -0.2945 -0.3501 -0.1660
  518PW      WM 6490   4.019   8.499   0.856 -0.1778 -0.6584 -0.6832
  519PW       W 6491  10.326   6.539   8.767  0.4166 -0.0860  0.0109
  519PW      WP 6492  10.272   6.459   8.666  0.2387  0.2732 -0.1883
  519PW      WM 6493  10.330   6.678   8.751 -0.1553 -0.0663 -0.0392
  520PW       W 6494   0.943  10.329  11.435 -0.0893  0.0131 -0.3979
  520PW      WP 6495   0.902  10.197  11.410 -0.0221 -0.1472  0.2332
  520PW      WM 6496   0.998  10.420  11.344  0.0819  0.2258 -0.0925
  521PW       W 6497   4.178   0.357   9.660  0.3048  0.2326  0.0441
  521PW      WP 6498   4.161   0.479   9.728 -0.0001  0.0536  0.3013
  521PW      WM 6499   4.106   0.403   9.549  0.1036  0.2645  0.1866
  522PW       W 6500   4.668   8.166  10.569 -0.2762 -0.3486  0.2416
  522PW      WP 6501   4.550   8.188  10.641 -0.2185 -0.4736  0.3777
  522PW      WM 6502   4.674   8.038  10.511 -0.1549 -0.2276 -0.0235
  523PW       W 6503   7.035   5.810  11.474 -0.7307  0.2805 -0.2861
  523PW      WP 6504   7.160   5.808  11.411 -0.3306 -0.2903  0.4471
  523PW      WM 6505   6.922   5.771  11.546 -0.3019  0.1207  0.3437
  524PW       W 6506   9.740   8.958  10.948 -0.1012  0.1386 -0.0426
  524PW      WP 6507   9.803   9.004  10.831  0.2488 -0.0195  0.0778
  524PW      WM 6508   9.720   8.820  10.948  0.3770  0.0618 -0.0057
  525PW       W 6509   6.838   3.701   4.610 -0.1357  0.2929  0.5857
  525PW      WP 6510   6.705   3.730   4.580 -0.0334  0.0383 -0.2268
  525PW      WM 6511   6.838   3.807   4.519 -0.1911 -0.1459  0.0492
  526PW       W 6512  11.687   1.605  10.680 -0.2347  0.0967  0.0005
  526PW      WP 6513  11.647   1.609  10.814 -0.3074  0.1445 -0.0221
  526PW      WM 6514  11.734   1.474  10.662 -0.2730  0.0742  0.0620
  527PW       W 6515   2.342  11.436  10.287  0.2691  0.0020 -0.1254
  527PW      WP 6516   2.466  11.454  10.349  0.2528 -0.0532 -0.0763
  527PW      WM 6517   2.364  11.423  10.149  0.1000  0.8204 -0.2541
  528PW       W 6518   2.551   6.948   1.311 -0.4915  0.2431  0.0959
  528PW      WP 6519   2.682   6.940   1.260 -0.3317  0.1436  0.5027
  528PW      WM 6520   2.538   6.966   1.449 -0.2161  0.3996  0.1063
  529PW       W 6521   5.106   4.986   3.879 -0.0041 -0.1401 -0.1541
  529PW      WP 6522   5.017   4.996   3.772  0.0710  0.4377 -0.1782
  529PW      WM 6523   5.199   4.881   3.879 -0.0137 -0.1507 -0.3603
  530PW       W 6524   6.922   3.778   9.161 -0.0646 -0.0846  0.0776
  530PW      WP 6525   6.913   3.892   9.081 -0.2478 -0.2913 -0.2073
  530PW      WM 6526   7.056   3.778   9.120 -0.0153  0.3790  0.2166
  531PW       W 6527   5.902  11.272  11.800 -0.1752  0.0332  0.3532
  531PW      WP 6528   5.911  11.133  11.791 -0.3379  0.0357  0.0974
  531PW      WM 6529   5.996  11.373  11.776 -0.4084  0.2103  0.1666
  532PW       W 6530   8.427  11.965   2.596 -0.0279  0.2662  0.0422
  532PW      WP 6531   8.500  11.962   2.716 -0.2108 -0.3891  0.1582
  532PW      WM 6532   8.357  12.007   2.483  0.0558 -0.1197 -0.1634
  533PW       W 6533   9.221   6.481   0.055  0.3286 -0.2335 -0.0470
  533PW      WP 6534   9.235   6.591   0.140  0.4381 -0.2920  0.0120
  533PW      WM 6535   9.242   6.386   0.155  0.1427 -0.4789 -0.2337
  534PW       W 6536   0.479  10.626   4.129  0.2258  0.1163  0.2011
  534PW      WP 6537   0.524  10.581   4.004  0.2245 -0.2369  0.3225
  534PW      WM 6538   0.520  10.756   4.099 -0.1845  0.1321 -0.3910
  535PW       W 6539   0.665   1.260  12.911  0.2647  0.1868  0.1380
  535PW      WP 6540   0.596   1.167  12.833 -0.0913  0.2338  0.3886
  535PW      WM 6541   0.590   1.329  13.007 -0.3840  0.4074 -0.4883
  536PW       W 6542   7.224   5.640   1.384  0.3228 -0.5611 -0.0736
  536PW      WP 6543   7.181   5.512   1.346 -0.5416 -0.3404  0.0536
  536PW      WM 6544   7.306   5.753   1.384 -0.2465 -0.1052 -0.7663
  537PW       W 6545   3.425   8.034   9.501 -0.3994  0.0051 -0.4031
  537PW      WP 6546   3.368   7.908   9.523 -0.4092  0.0594 -0.0922
  537PW      WM 6547   3.364   8.133   9.579  0.0507 -0.1291  0.1489
  538PW       W 6548   1.204   9.206   9.494  0.0727 -0.4359 -0.1627
  538PW      WP 6549   1.250   9.152   9.373  0.1100 -0.1740 -0.2712
  538PW      WM 6550   1.161   9.132   9.604 -0.1310 -0.4485 -0.2485
  539PW       W 6551   5.004   8.110  11.552 -0.2021  0.1310 -0.0859
  539PW      WP 6552   5.140   8.101  11.583 -0.2625 -0.7233  0.0512
  539PW      WM 6553   5.054   8.075  11.426 -0.5797 -0.1311 -0.1742
  540PW       W 6554   4.079   9.740  12.527  0.1859  0.6944 -0.2616
  540PW      WP 6555   3.964   9.775  12.598  0.2950  0.3641  0.0960
  540PW      WM 6556   4.006   9.721  12.409  0.1162  0.1807 -0.1477
  541PW       W 6557  10.051  10.204   2.433  0.2039  0.2431 -0.3262
  541PW      WP 6558   9.923  10.150   2.448  0.1919  0.2970 -0.2225
  541PW      WM 6559  10.117  10.108   2.511 -0.3833 -0.4276 -0.6033
  542PW       W 6560   0.933   0.750   4.515  0.4516  0.0662  0.6939
  542PW      WP 6561   1.070   0.737   4.544  0.3936 -0.2161  0.8687
  542PW      WM 6562   0.892   0.630   4.574  0.0021 -0.0387  0.1989
  543PW       W 6563   7.430   4.547   9.390  0.3479  0.2510 -0.3375
  543PW      WP 6564   7.406   4.413   9.356  0.5627  0.2730 -0.5903
  543PW      WM 6565   7.557   4.489   9.394  0.3788  0.3309  0.3204
  544PW       W 6566   8.163  10.501  10.410 -0.0975  0.0106  0.1442
  544PW      WP 6567   8.068  10.534  10.313 -0.0074  0.8996  0.3215
  544PW      WM 6568   8.183  10.369  10.367 -0.4565  0.1198 -0.4099
  545PW       W 6569   5.754   5.323   0.449  0.0962  0.1886 -0.0831
  545PW      WP 6570   5.866   5.279   0.521  0.2534  0.1713 -0.3318
  545PW      WM 6571   5.726   5.433   0.531 -0.3635 -0.0959  0.1627
  546PW       W 6572   0.428   8.068   4.212 -0.2054  0.0059 -0.9388
  546PW      WP 6573   0.473   8.200   4.223  0.4946 -0.2527 -0.0561
  546PW      WM 6574   0.533   7.986   4.168  0.1024 -0.1648 -0.0025
  547PW       W 6575   9.009  12.031   0.644 -0.1369 -0.0096  0.4613
  547PW      WP 6576   9.028  11.986   0.513 -0.1877  0.0233  0.4428
  547PW      WM 6577   8.940  12.110   0.737 -0.1550 -0.0508  0.4830
  548PW       W 6578   0.624   6.609   3.913 -0.2117 -0.2739 -0.0488
  548PW      WP 6579   0.606   6.636   4.049 -0.4327 -0.3726 -0.0561
  548PW      WM 6580   0.632   6.703   3.810 -0.1664 -0.0602  0.1446
  549PW       W 6581   5.443   9.752   4.569  0.1476  0.2804 -0.6093
  549PW      WP 6582   5.311   9.795   4.553  0.0629  0.2383 -0.1153
  549PW      WM 6583   5.528   9.862   4.554  0.2885  0.2850  0.0781
  550PW       W 6584   8.133   3.308   8.378 -0.2975  0.2265  0.6207
  550PW      WP 6585   8.032   3.390   8.327 -0.1290  0.0220 -0.0925
  550PW      WM 6586   8.112   3.387   8.492 -0.0702  0.1579  0.7141
  551PW       W 6587   6.425   1.937   0.695  0.2545 -0.2024  0.0387
  551PW      WP 6588   6.505   1.934   0.810 -0.3809 -0.5254  0.5020
  551PW      WM 6589   6.339   1.863   0.613 -0.1807  0.1313  0.1749
  552PW       W 6590  10.860   6.459   8.834  0.1105 -0.2500 -0.1934
  552PW      WP 6591  10.930   6.341   8.805  0.4081 -0.1111 -0.0593
  552PW      WM 6592  10.837   6.331   8.888 -0.2866 -0.0898  0.0426
  553PW       W 6593   2.628   9.323   2.517 -0.1036  0.3045 -0.1174
  553PW      WP 6594   2.758   9.366   2.547 -0.0793  0.0443  0.1830
  553PW      WM 6595   2.593   9.203   2.455  0.3811  0.1522 -0.1152
  554PW       W 6596   1.785   0.453  12.821  0.3245  0.0458  0.0079
  554PW      WP 6597   1.689   0.376  12.754 -0.2215  0.1944  0.5747
  554PW      WM 6598   1.867   0.341  12.842  0.1491 -0.0924 -0.0309
  555PW       W 6599   8.770  11.977   9.265  0.2088 -0.1134  0.3318
  555PW      WP 6600   8.839  11.855   9.260 -0.2871 -0.4011  0.1833
  555PW      WM 6601   8.784  12.093   9.188 -0.1391 -0.4648 -0.2934
  556PW       W 6602   6.295  10.367   2.654 -0.4685 -0.2524 -0.0487
  556PW      WP 6603   6.389  10.305   2.572  0.0420  0.2578  0.1224
  556PW      WM 6604   6.242  10.242   2.621  0.1523 -0.4359 -0.4272
  557PW       W 6605  11.064   7.319   2.783  0.2063 -0.2296 -0.0165
  557PW      WP 6606  11.194   7.365   2.806 -0.0303  0.3869  0.1788
  557PW      WM 6607  11.060   7.412   2.887  0.2735 -0.2964  0.0470
  558PW       W 6608   9.055   3.818   5.172  0.2098  0.3468  0.2012
  558PW      WP 6609   9.003   3.712   5.095 -0.2143  0.4158  0.3749
  558PW      WM 6610   9.190   3.830   5.206  0.3717  0.0753 -0.2953
  559PW       W 6611   0.929   2.460  11.044 -0.1553 -0.0308  0.1416
  559PW      WP 6612   0.857   2.363  11.115 -0.2158 -0.3218 -0.2984
  559PW      WM 6613   0.884   2.476  10.913 -0.0521  0.2901  0.1397
  560PW       W 6614   5.869   1.295   8.589  0.1804 -0.2001  0.1369
  560PW      WP 6615   5.768   1.200   8.572  0.2005 -0.2180  0.1163
  560PW      WM 6616   5.857   1.434   8.602 -0.2982 -0.1838 -0.3115
  561PW       W 6617   2.243   1.464   3.582  0.1328  0.5692 -0.1535
  561PW      WP 6618   2.309   1.345   3.551  0.1294  0.4758  0.1786
  561PW      WM 6619   2.369   1.485   3.639  0.1648 -0.0899  0.0600
  562PW       W 6620   7.855  10.415   1.528 -0.2304 -0.5651 -0.0116
  562PW      WP 6621   7.803  10.544   1.511  0.7564 -0.0525  0.4020
  562PW      WM 6622   7.892  10.519   1.442 -0.4160 -0.2442  0.2852
  563PW       W 6623   7.451   5.657  10.650 -0.0937 -0.2649  0.0025
  563PW      WP 6624   7.529   5.671  10.535  0.3403  0.0231  0.3130
  563PW      WM 6625   7.454   5.522  10.688  0.5052 -0.1460  0.4573
  564PW       W 6626   1.268   7.868  11.980 -0.2992  0.2998 -0.1611
  564PW      WP 6627   1.396   7.874  12.036 -0.2928 -0.2288 -0.0990
  564PW      WM 6628   1.217   7.901  12.106  0.0032 -0.7232  0.2825
  565PW       W 6629   2.402   0.374   3.570 -0.4055 -0.3223  0.0156
  565PW      WP 6630   2.486   0.278   3.627 -0.3653 -0.2063  0.1557
  565PW      WM 6631   2.321   0.308   3.476 -0.0156 -0.5931 -0.1440
  566PW       W 6632   6.507   6.210   1.889 -0.1675  0.4026  0.2627
  566PW      WP 6633   6.613   6.180   1.803 -0.3840 -0.0682  0.1400
  566PW      WM 6634   6.568   6.305   1.971 -0.0643  0.7624 -0.2079
  567PW       W 6635  11.325   0.768  10.180 -0.1628  0.0335 -0.2307
  567PW      WP 6636  11.341   0.761  10.318  0.1354  0.2370 -0.2498
  567PW      WM 6637  11.292   0.635  10.152  0.3906 -0.0940 -0.3350
  568PW       W 6638   9.817   5.367  10.283 -0.1380  0.2290 -0.2179
  568PW      WP 6639   9.723   5.297  10.359  0.3522 -0.0508  0.1593
  568PW      WM 6640   9.882   5.318  10.169  0.0345 -0.1280  0.0229
  569PW       W 6641   1.774   1.973   4.901 -0.1425 -0.0914 -0.1676
  569PW      WP 6642   1.826   1.951   5.029  0.3485  0.1932 -0.3044
  569PW      WM 6643   1.765   1.942   4.765  0.2098  0.5770 -0.3647
  570PW       W 6644   6.690   2.455   9.424  0.2833 -0.1314 -0.3978
  570PW      WP 6645   6.767   2.570   9.400  0.0980  0.0032 -0.3573
  570PW      WM 6646   6.577   2.373   9.422  0.0244  0.1951 -0.0179
  571PW       W 6647   9.513   7.154   0.717 -0.0659 -0.0244 -0.1885
  571PW      WP 6648   9.488   7.024   0.764 -0.2443 -0.0489 -0.3422
  571PW      WM 6649   9.630   7.163   0.641 -0.2053  0.3137 -0.3742
  572PW       W 6650   3.665   1.918  13.133 -0.2089  0.4318  0.0191
  572PW      WP 6651   3.743   1.928  13.018 -0.1756  0.1912  0.0183
  572PW      WM 6652   3.725   1.793  13.153  0.5277  0.6454 -0.6008
  573PW       W 6653   9.103   5.209  10.900  0.0938 -0.0541  0.1461
  573PW      WP 6654   9.128   5.210  10.762  0.2248 -0.1375  0.1690
  573PW      WM 6655   9.167   5.311  10.972  0.2412  0.0369 -0.1044
  574PW       W 6656  10.148   6.878   1.532  0.2309 -0.1127 -0.1416
  574PW      WP 6657  10.014   6.874   1.574  0.1278 -0.0426 -0.4530
  574PW      WM 6658  10.215   6.911   1.414  0.0140 -0.0013 -0.2349
  575PW       W 6659  -0.008   5.890  10.597 -0.2524 -0.0994 -0.2412
  575PW      WP 6660  -0.036   5.765  10.655 -0.3189  0.0898  0.1540
  575PW      WM 6661   0.122   5.933  10.569 -0.0004 -0.0806  0.7506
  576PW       W 6662   3.401   0.895   9.819  0.0125  0.2870 -0.3267
  576PW      WP 6663   3.335   0.930   9.938  0.0323 -0.4597 -0.0692
  576PW      WM 6664   3.484   1.002   9.855  0.4862 -0.1964  0.1211
  577PW       W 6665   5.727  10.443  11.526  0.3299 -0.4386 -0.4951
  577PW      WP 6666   5.635  10.343  11.492 -0.2404  0.0014 -0.3182
  577PW      WM 6667   5.855  10.486  11.561  0.0540 -0.1173  0.2031
  578PW       W 6668   4.280  11.096   9.565  0.2306  0.1660  0.4272
  578PW      WP 6669   4.163  11.169   9.536  0.4655  0.2696 -0.3845
  578PW      WM 6670   4.229  10.969   9.595  0.2222  0.0665  0.0199
  579PW       W 6671   0.707   1.023  10.953  0.1033 -0.2035 -0.1375
  579PW      WP 6672   0.584   1.086  10.980  0.1359 -0.2037  0.0166
  579PW      WM 6673   0.815   1.020  10.865  0.3209  0.0462  0.1114
  580PW       W 6674   8.759   7.797   9.296 -0.3391  0.0618 -0.0605
  580PW      WP 6675   8.807   7.919   9.347  0.3045 -0.0169 -0.4171
  580PW      WM 6676   8.874   7.758   9.226 -0.4896 -0.1272 -0.2062
  581PW       W 6677   2.478  11.423   9.848  0.0936  0.4993 -0.0855
  581PW      WP 6678   2.397  11.390   9.957  0.5131 -0.2298  0.0324
  581PW      WM 6679   2.512  11.391   9.716  0.4739 -0.4311  0.2065
  582PW       W 6680   9.553   7.379  12.299  0.1394 -0.1735  0.1470
  582PW      WP 6681   9.413   7.387  12.293  0.1611  0.3624  0.1057
  582PW      WM 6682   9.455   7.479  12.294  0.5535  0.2438 -0.2483
  583PW       W 6683   6.435   2.651   2.044 -0.1023  0.0017 -0.2403
  583PW      WP 6684   6.428   2.564   1.934  0.7075 -0.2032 -0.1630
  583PW      WM 6685   6.365   2.771   2.031  0.0671  0.1087 -0.1841
  584PW       W 6686   5.357  11.406   5.043  0.0219 -0.0373  0.3259
  584PW      WP 6687   5.445  11.513   5.065  0.3636 -0.2945  0.2619
  584PW      WM 6688   5.284  11.415   4.924  0.0475  0.2168  0.3266
  585PW       W 6689   1.728   8.368   3.459  0.0048  0.0931  0.3511
  585PW      WP 6690   1.643   8.347   3.350  0.3366 -0.0336  0.1093
  585PW      WM 6691   1.767   8.502   3.445  0.0672  0.0824  0.4160
  586PW       W 6692   2.788  10.312   4.123 -0.0283 -0.2735 -0.0149
  586PW      WP 6693   2.758  10.254   3.999 -0.2434 -0.4372  0.1102
  586PW      WM 6694   2.899  10.381   4.072 -0.1290  0.0844  0.2289
  587PW       W 6695   1.656   7.908   9.441  0.0738  0.1420 -0.1561
  587PW      WP 6696   1.625   7.790   9.372  0.5453  0.1839 -0.4614
  587PW      WM 6697   1.740   8.014   9.407 -0.3519  0.5332 -0.0333
  588PW       W 6698   3.764   1.533   4.744 -0.1713 -0.3380 -0.5527
  588PW      WP 6699   3.649   1.505   4.819 -0.0661  0.5735  0.0332
  588PW      WM 6700   3.888   1.508   4.684  0.0808  0.2434 -0.3215
  589PW       W 6701  12.102  10.208   3.455 -0.3631  0.2042  0.2877
  589PW      WP 6702  11.979  10.247   3.402 -0.1583 -0.0388 -0.4220
  589PW      WM 6703  12.215  10.261   3.520 -0.3428 -0.1058  0.5184
  590PW       W 6704   7.678  10.183   4.058  0.3078  0.0477 -0.2197
  590PW      WP 6705   7.679  10.060   3.991 -0.2359 -0.1139  0.0405
  590PW      WM 6706   7.742  10.300   4.100  0.2895 -0.2500  0.7735
  591PW       W 6707   9.128   1.407  12.499 -0.0012 -0.3669 -0.0322
  591PW      WP 6708   9.236   1.341  12.559 -0.1014 -0.3172  0.2072
  591PW      WM 6709   9.061   1.367  12.383 -0.2264  0.0557 -0.0588
  592PW       W 6710   7.723   2.244   9.953  0.0858 -0.0128 -0.1349
  592PW      WP 6711   7.735   2.270  10.090 -0.5893 -0.4139  0.0230
  592PW      WM 6712   7.586   2.266   9.975  0.1328  0.4197 -0.2147
  593PW       W 6713   0.135   4.310  12.914  0.0384 -0.5226 -0.1066
  593PW      WP 6714   0.074   4.231  12.816  0.1473 -0.4782 -0.2105
  593PW      WM 6715   0.130   4.345  12.779 -0.4488 -0.2387 -0.0276
  594PW       W 6716   5.239   1.375  12.818 -0.2467  0.1868 -0.2247
  594PW      WP 6717   5.373   1.414  12.832 -0.0572 -0.5227  0.1514
  594PW      WM 6718   5.206   1.391  12.953 -0.2451 -0.0103 -0.1999
  595PW       W 6719   6.439   4.775   4.212 -0.4729  0.2101  0.0554
  595PW      WP 6720   6.556   4.811   4.144 -0.4011  0.2849  0.2153
  595PW      WM 6721   6.414   4.642   4.246  0.3487 -0.0344 -0.1896
  596PW       W 6722   0.801   9.073   2.723 -0.3049  0.2478  0.1012
  596PW      WP 6723   0.721   8.987   2.647  0.0867 -0.3448  0.3260
  596PW      WM 6724   0.935   9.085   2.684 -0.1140  0.4322  0.7440
  597PW       W 6725   5.197   8.596   5.376  0.1186  0.7696  0.2977
  597PW      WP 6726   5.241   8.524   5.265  0.1556 -0.0983  0.8215
  597PW      WM 6727   5.141   8.724   5.385 -0.3401  0.5899  0.1424
  598PW       W 6728   4.493   4.487   4.921  0.2631 -0.0508 -0.2075
  598PW      WP 6729   4.486   4.354   4.878  0.1005 -0.1727  0.1730
  598PW      WM 6730   4.610   4.564   4.927 -0.0935  0.5282 -0.3705
  599PW       W 6731   7.205   7.020   2.012 -0.1410 -0.1287  0.0190
  599PW      WP 6732   7.341   6.990   1.996 -0.0761  0.2916 -0.3051
  599PW      WM 6733   7.099   7.101   1.971 -0.2524  0.0215  0.5661
  600PW       W 6734   3.827   5.705  13.333 -0.0131 -0.0835 -0.1552
  600PW      WP 6735   3.879   5.675  13.206 -0.0490  0.0891 -0.2126
  600PW      WM 6736   3.916   5.612  13.388 -0.0949 -0.0026  0.1177
  601PW       W 6737  10.820   6.290   9.522  0.2435  0.4819 -0.4596
  601PW      WP 6738  10.911   6.285   9.629  0.0793 -0.3046 -0.3258
  601PW      WM 6739  10.697   6.350   9.497  0.0824  0.2913 -0.1537
  602PW       W 6740   4.569   6.204   2.480 -0.2153 -0.1070 -0.0651
  602PW      WP 6741   4.631   6.085   2.521 -0.0844 -0.0847 -0.1947
  602PW      WM 6742   4.656   6.181   2.373 -0.3300  0.6311 -0.3425
  603PW       W 6743   9.964  12.038   4.004 -0.2432  0.1721  0.2759
  603PW      WP 6744   9.893  11.967   3.906  0.3206 -0.4573  0.2815
  603PW      WM 6745  10.057  11.956   4.070 -0.0104 -0.0578 -0.3001
  604PW       W 6746   4.775  12.077  12.635 -0.2379  0.0940 -0.2875
  604PW      WP 6747   4.868  12.012  12.717  0.0574  0.1172 -0.5932
  604PW      WM 6748   4.701  12.196  12.643 -0.3130  0.0622 -0.4741
  605PW       W 6749   8.851   5.721   3.102  0.0119 -0.0093 -0.1502
  605PW      WP 6750   8.898   5.605   3.166 -0.2208 -0.3590 -0.5883
  605PW      WM 6751   8.788   5.643   3.005  0.0019 -0.1713 -0.0171
  606PW       W 6752   8.878   6.358   4.481  0.2919  0.0745  0.3824
  606PW      WP 6753   8.801   6.473   4.499 -0.4143 -0.3801  0.4894
  606PW      WM 6754   8.855   6.238   4.412  0.2834  0.1581  0.2362
  607PW       W 6755   5.707   6.674   9.623 -0.2752 -0.2224  0.2600
  607PW      WP 6756   5.842   6.647   9.600 -0.1316  0.6115 -0.0447
  607PW      WM 6757   5.719   6.599   9.741 -0.0144 -0.0645  0.3384
  608PW       W 6758   1.422   6.501   4.141  0.3431  0.4049 -0.0909
  608PW      WP 6759   1.332   6.559   4.050  0.1570 -0.0457 -0.2048
  608PW      WM 6760   1.558   6.472   4.121  0.2709  0.1536 -0.2400
  609PW       W 6761   1.891   0.402   3.432  0.1689  0.3539 -0.1373
  609PW      WP 6762   1.822   0.505   3.367  0.1477  0.4552  0.0440
  609PW      WM 6763   1.927   0.383   3.298 -0.1434 -0.1309 -0.1659
  610PW       W 6764  10.099   7.114   2.917 -0.0365 -0.1398  0.1797
  610PW      WP 6765  10.007   7.010   2.899 -0.0753 -0.0252 -0.4158
  610PW      WM 6766  10.118   7.189   3.034  0.1364 -0.0124  0.0732
  611PW       W 6767   7.622   5.881  11.985  0.3280 -0.2543 -0.4005
  611PW      WP 6768   7.601   5.777  12.077  0.2787  0.0263 -0.0869
  611PW      WM 6769   7.615   6.013  12.031 -0.0851 -0.4517  0.1601
  612PW       W 6770   2.257   0.504   0.621 -0.2056  0.2300 -0.0719
  612PW      WP 6771   2.314   0.602   0.703 -0.1725  0.6189 -0.5345
  612PW      WM 6772   2.156   0.514   0.524 -0.4863 -0.3292  0.1435
  613PW       W 6773   5.544   2.996   3.919  0.3627  0.1163  0.2675
  613PW      WP 6774   5.618   3.099   3.859  0.1443  0.2047  0.1393
  613PW      WM 6775   5.475   2.986   4.040 -0.2007 -0.0294 -0.0449
  614PW       W 6776   7.457   2.674   2.610 -0.6277 -0.1975 -0.4380
  614PW      WP 6777   7.409   2.603   2.500 -0.5461 -0.4325 -0.3248
  614PW      WM 6778   7.460   2.568   2.701  0.6366  0.2009  0.0982
  615PW       W 6779   4.869   7.596   4.320 -0.2312  0.0090  0.0305
  615PW      WP 6780   4.844   7.704   4.405  0.4231  0.2930 -0.1033
  615PW      WM 6781   4.832   7.622   4.188 -0.0407 -0.1754 -0.0621
  616PW       W 6782   0.749  10.194   1.125 -0.0641  0.4041 -0.1133
  616PW      WP 6783   0.881  10.165   1.160 -0.1168  0.1974 -0.0807
  616PW      WM 6784   0.690  10.222   1.249 -0.0882 -0.1733  0.0200
  617PW       W 6785   3.804   0.004   9.001 -0.2296  0.0404  0.1984
  617PW      WP 6786   3.785   0.140   8.975  0.0158  0.0145 -0.1448
  617PW      WM 6787   3.808   0.014   9.141  0.1088  0.4801  0.1698
  618PW       W 6788   8.573   0.876  11.032 -0.1163  0.1718 -0.0132
  618PW      WP 6789   8.438   0.841  11.045 -0.1235  0.0296 -0.4148
  618PW      WM 6790   8.657   0.771  10.994 -0.1558  0.1796 -0.1231
  619PW       W 6791   3.843  10.575  11.914  0.1132 -0.2518  0.0760
  619PW      WP 6792   3.956  10.616  11.985 -0.2676 -0.0091  0.5681
  619PW      WM 6793   3.751  10.678  11.897 -0.0455 -0.3447  0.3418
  620PW       W 6794   5.848   3.500  12.079 -0.2783 -0.0439 -0.0316
  620PW      WP 6795   5.780   3.503  12.201  0.3339 -0.1423  0.3319
  620PW      WM 6796   5.923   3.616  12.100  0.0616 -0.3459  0.5468
  621PW       W 6797   2.663   0.425   0.307 -0.6436 -0.2500 -0.3464
  621PW      WP 6798   2.631   0.349   0.420  0.1743 -0.3586 -0.1534
  621PW      WM 6799   2.545   0.493   0.339 -0.2029  0.2590  0.3420
  622PW       W 6800   5.706   0.816   5.313  0.0913 -0.2298  0.3117
  622PW      WP 6801   5.673   0.943   5.262  0.1097 -0.2286  0.3024
  622PW      WM 6802   5.777   0.720   5.240 -0.1500 -0.0186 -0.2320
  623PW       W 6803   6.534  10.894   3.258 -0.4279  0.0075 -0.1494
  623PW      WP 6804   6.534  10.815   3.373 -0.3527 -0.1698 -0.2697
  623PW      WM 6805   6.469  11.018   3.254 -0.2423  0.1163  0.0988
  624PW       W 6806  11.423   8.900   2.141  0.0038  0.4305  0.0558
  624PW      WP 6807  11.414   8.961   2.015  0.1330 -0.0391 -0.1931
  624PW      WM 6808  11.466   8.848   2.018 -0.0881 -0.3001  0.3093
  625PW       W 6809   0.290   6.399   1.462  0.3778  0.2369  0.0939
  625PW      WP 6810   0.301   6.326   1.581  0.2958 -0.1379 -0.1221
  625PW      WM 6811   0.174   6.474   1.439  0.0705 -0.1676  0.2512
  626PW       W 6812   7.892   8.051   9.634  0.1270 -0.0132 -0.3864
  626PW      WP 6813   7.781   8.014   9.711  0.5405 -0.3520  0.0799
  626PW      WM 6814   7.996   8.028   9.724 -0.0741  0.5826  0.0227
  627PW       W 6815   6.599   7.070   9.904 -0.0072 -0.0094 -0.1539
  627PW      WP 6816   6.687   6.988   9.834 -0.5527 -0.4817 -0.3232
  627PW      WM 6817   6.465   7.032   9.887 -0.1050  0.2121  0.0939
  628PW       W 6818   8.686  10.039   2.751  0.5215  0.3274  0.0323
  628PW      WP 6819   8.571  10.114   2.780  0.0924 -0.3890  0.3358
  628PW      WM 6820   8.687   9.902   2.778  0.1090  0.3352  0.1291
  629PW       W 6821  11.415   2.200  11.923 -0.3688 -0.2269  0.2033
  629PW      WP 6822  11.413   2.260  12.049 -0.2413  0.3404 -0.0513
  629PW      WM 6823  11.553   2.183  11.909 -0.4016 -0.2617 -0.1158
  630PW       W 6824   1.397  11.163  11.642  0.2577  0.4988 -0.2829
  630PW      WP 6825   1.405  11.284  11.571 -0.1506  0.5767 -0.2095
  630PW      WM 6826   1.489  11.058  11.634  0.3298  0.4459  0.6519
  631PW       W 6827   0.028   9.780  -0.006  0.3210  0.0742  0.1597
  631PW      WP 6828  -0.094   9.790   0.062  0.1626  0.1512 -0.1295
  631PW      WM 6829   0.115   9.889  -0.017  0.0193  0.3326  0.2630
  632PW       W 6830   3.386   1.192  12.402 -0.0660  0.3625  0.1390
  632PW      WP 6831   3.249   1.220  12.394 -0.0263  0.4964 -0.1632
  632PW      WM 6832   3.450   1.145  12.517  0.1554  0.0841 -0.0912
  633PW       W 6833   3.866   8.889   1.098  0.0431 -0.3642  0.1709
  633PW      WP 6834   3.784   8.919   1.208  0.4194  0.0452  0.3557
  633PW      WM 6835   3.834   8.846   0.968  0.7676 -0.1557 -0.0990
  634PW       W 6836   9.681  11.309  11.686 -0.0953 -0.0431  0.0303
  634PW      WP 6837   9.681  11.407  11.786 -0.0749  0.0121 -0.0242
  634PW      WM 6838   9.551  11.258  11.680 -0.0045 -0.3064  0.1715
  635PW       W 6839   4.875   2.960   4.302 -0.1316 -0.1945 -0.0606
  635PW      WP 6840   5.004   2.995   4.341 -0.1631  0.1323 -0.2275
  635PW      WM 6841   4.819   2.917   4.423 -0.1295  0.0300  0.0236
  636PW       W 6842   2.344   7.573   0.737  0.2668  0.1532 -0.1274
  636PW      WP 6843   2.274   7.628   0.845 -0.1927  0.0050 -0.3396
  636PW      WM 6844   2.258   7.510   0.647  0.4186  0.0968 -0.2344
  637PW       W 6845   1.638   4.464  11.475 -0.0371  0.1024 -0.0370
  637PW      WP 6846   1.600   4.366  11.383  0.0552  0.5005 -0.5179
  637PW      WM 6847   1.721   4.444  11.586 -0.3645 -0.3194  0.1493
  638PW       W 6848   2.876   4.934   3.804  0.3800 -0.1716 -0.7031
  638PW      WP 6849   2.760   4.881   3.861  0.1390  0.4477 -0.5793
  638PW      WM 6850   3.003   4.908   3.858 -0.0116 -0.2243  0.3106
  639PW       W 6851   8.194  11.260  11.100 -0.0643 -0.4624  0.1319
  639PW      WP 6852   8.089  11.285  11.189  0.0933 -0.0907  0.2227
  639PW      WM 6853   8.222  11.232  10.966  0.0626 -0.1133  0.0828
  640PW       W 6854  10.336   6.310   2.639 -0.0891  0.2848  0.0940
  640PW      WP 6855  10.272   6.381   2.537  0.0325 -0.1434 -0.2971
  640PW      WM 6856  10.302   6.396   2.744 -0.2603 -0.1875  0.4428
  641PW       W 6857   1.950   3.636  11.751  0.3528  0.7692 -0.0832
  641PW      WP 6858   2.060   3.556  11.785 -0.3658 -0.4060 -0.2475
  641PW      WM 6859   1.979   3.638  11.614 -0.0226 -0.4383 -0.2376
  642PW       W 6860   6.211   2.323  13.255  0.0406 -0.5329  0.1795
  642PW      WP 6861   6.101   2.308  13.340 -0.3156  0.4550 -0.0353
  642PW      WM 6862   6.246   2.386  13.135 -0.5286 -0.2943  0.1210
  643PW       W 6863   1.854  10.553   9.329  0.0669 -0.2699  0.0667
  643PW      WP 6864   1.903  10.671   9.273  0.3055 -0.2812  0.2429
  643PW      WM 6865   1.820  10.505   9.202 -0.2271 -0.3152  0.1585
  644PW       W 6866  11.868   4.348   4.457  0.3032  0.1863 -0.2199
  644PW      WP 6867  11.806   4.291   4.569 -0.0125  0.1416 -0.4095
  644PW      WM 6868  11.900   4.472   4.513  0.6846  0.0414 -0.1013
  645PW       W 6869   3.159   0.418   0.335 -0.1098  0.1781  0.0123
  645PW      WP 6870   3.207   0.547   0.312 -0.1546  0.1812 -0.0658
  645PW      WM 6871   3.274   0.341   0.315  0.1566  0.5631  0.0045
  646PW       W 6872   7.847   3.575   4.769  0.2932  0.4249  0.1313
  646PW      WP 6873   7.886   3.579   4.634 -0.1280 -0.2615 -0.0318
  646PW      WM 6874   7.826   3.658   4.658  0.5462 -0.0011 -0.2492
  647PW       W 6875  11.544   2.674   1.791  0.2486  0.2090  0.1374
  647PW      WP 6876  11.648   2.726   1.713  0.0270  0.5508  0.0597
  647PW      WM 6877  11.475   2.713   1.907 -0.1824 -0.1072 -0.0028
  648PW       W 6878   6.249   1.147   8.356 -0.0234 -0.4968 -0.4627
  648PW      WP 6879   6.116   1.164   8.315 -0.1654  0.1895  0.1685
  648PW      WM 6880   6.233   1.076   8.475  0.0923 -0.2563 -0.2996
  649PW       W 6881   7.701   0.658   3.370  0.3860  0.3747 -0.4300
  649PW      WP 6882   7.578   0.611   3.322  0.1814  0.0331  0.3432
  649PW      WM 6883   7.830   0.699   3.407  0.1890  0.3674  0.3536
  650PW       W 6884   4.428  11.486  10.397  0.2071 -0.3855  0.1316
  650PW      WP 6885   4.347  11.583  10.457  0.0654 -0.1838 -0.3606
  650PW      WM 6886   4.369  11.371  10.344  0.0269 -0.0753 -0.3758
  651PW       W 6887   0.966   7.500   1.997  0.3149  0.0277 -0.1990
  651PW      WP 6888   0.890   7.615   1.970  0.0760 -0.0254  0.2061
  651PW      WM 6889   1.036   7.568   1.897  0.1309  0.2469 -0.1835
  652PW       W 6890   6.880   1.524   0.009 -0.1179  0.0427  0.2447
  652PW      WP 6891   6.771   1.605  -0.025 -0.0582 -0.1293 -0.4202
  652PW      WM 6892   6.834   1.479   0.134  0.2100 -0.2791  0.2606
  653PW       W 6893  10.386   9.544   4.298  0.1306  0.3248  0.0531
  653PW      WP 6894  10.254   9.532   4.251  0.2533 -0.0862 -0.2133
  653PW      WM 6895  10.333   9.644   4.380 -0.3154 -0.3305  0.6125
  654PW       W 6896   4.694   1.600  11.923 -0.2867  0.3773  0.2690
  654PW      WP 6897   4.729   1.632  12.054  0.9845  0.0140  0.0915
  654PW      WM 6898   4.585   1.522  11.884 -0.2098  0.5480 -0.3523
  655PW       W 6899   2.472  11.316  12.749  0.4918 -0.0045 -0.2249
  655PW      WP 6900   2.432  11.450  12.739  0.2513 -0.0000  0.5131
  655PW      WM 6901   2.349  11.317  12.817  0.7520  0.0498  0.2621
  656PW       W 6902  12.169   8.511   4.282 -0.4452 -0.0983 -0.3519
  656PW      WP 6903  12.188   8.452   4.156  0.3888  0.0061 -0.3028
  656PW      WM 6904  12.053   8.589   4.274 -0.2734  0.2115  0.0138
  657PW       W 6905   9.598  11.277   9.303  0.4375  0.0015 -0.3168
  657PW      WP 6906   9.561  11.159   9.237 -0.3586 -0.0350  0.1318
  657PW      WM 6907   9.665  11.369   9.221  0.4905  0.2444 -0.0090
  658PW       W 6908   5.155   6.093   1.833 -0.2695 -0.0798 -0.0818
  658PW      WP 6909   5.053   6.075   1.927 -0.3129 -0.1005 -0.1328
  658PW      WM 6910   5.188   6.218   1.779  0.3051 -0.2837 -0.2426
  659PW       W 6911   1.542   4.350  12.536 -0.2542 -0.0854  0.2030
  659PW      WP 6912   1.543   4.218  12.488 -0.3179  0.1130 -0.3880
  659PW      WM 6913   1.594   4.451  12.454 -0.1797 -0.3205 -0.0494
  660PW       W 6914  11.536   3.089   2.527 -0.0515 -0.5146  0.3544
  660PW      WP 6915  11.597   3.113   2.651 -0.3724  0.2401  0.3893
  660PW      WM 6916  11.626   2.983   2.512  0.0016 -0.4481  0.1963
  661PW       W 6917   3.244   9.966   4.155  0.0615  0.0803 -0.4544
  661PW      WP 6918   3.207   9.896   4.039 -0.0875 -0.4424 -0.1124
  661PW      WM 6919   3.208   9.977   4.290  0.4631 -0.0029 -0.3355
  662PW       W 6920   4.778   9.183  11.734 -0.2777  0.4022 -0.0412
  662PW      WP 6921   4.769   9.180  11.873  0.2822  0.1104  0.0010
  662PW      WM 6922   4.903   9.245  11.747  0.0569 -0.1134 -0.5265
  663PW       W 6923   7.347   0.191   9.450  0.1877  0.0315 -0.1207
  663PW      WP 6924   7.368   0.238   9.320 -0.0626  0.1350 -0.1250
  663PW      WM 6925   7.346   0.330   9.436 -0.1344  0.0048 -0.3947
  664PW       W 6926   7.163   7.812   2.964  0.3467 -0.1845 -0.2592
  664PW      WP 6927   7.068   7.709   2.966  0.0919  0.0457 -0.0794
  664PW      WM 6928   7.024   7.827   2.949  0.3821  0.2909 -0.2043
  665PW       W 6929   7.328  10.738   1.820 -0.2465 -0.1410 -0.1253
  665PW      WP 6930   7.341  10.600   1.836  0.2086 -0.1039 -0.1013
  665PW      WM 6931   7.413  10.838   1.770  0.0624 -0.3381 -0.0095
  666PW       W 6932   1.880   8.405  11.050  0.2148  0.3090 -0.6589
  666PW      WP 6933   1.801   8.471  10.955  0.4624  0.4400 -0.7799
  666PW      WM 6934   1.992   8.435  10.971  0.4795 -0.1350 -0.4749
  667PW       W 6935   5.674   1.551  11.616  0.2308  0.2065  0.7700
  667PW      WP 6936   5.629   1.674  11.567  0.1633 -0.1237 -0.0722
  667PW      WM 6937   5.606   1.439  11.666 -0.2213  0.0366 -0.1327
  668PW       W 6938   7.295   6.249  12.563 -0.3620 -0.2141 -0.2226
  668PW      WP 6939   7.349   6.139  12.630  0.4953  0.3058  0.0137
  668PW      WM 6940   7.316   6.267  12.426 -0.0391 -0.0390 -0.1546
  669PW       W 6941   1.618   5.060   9.854  0.2036  0.2065 -0.2375
  669PW      WP 6942   1.495   5.099   9.908  0.1515  0.1691 -0.3275
  669PW      WM 6943   1.656   4.996   9.973  0.4157  0.4854 -0.1523
  670PW       W 6944   6.486   7.156   0.263 -0.4312  0.1668  0.1297
  670PW      WP 6945   6.475   7.115   0.397 -0.0533 -0.2097  0.0531
  670PW      WM 6946   6.576   7.247   0.207 -0.2091 -0.2852 -0.2892
  671PW       W 6947   5.872   9.976   8.470 -0.0626  0.2676  0.1029
  671PW      WP 6948   5.850   9.841   8.438 -0.1405  0.2910  0.0560
  671PW      WM 6949   5.995  10.030   8.509 -0.0022  0.1225  0.1174
  672PW       W 6950   9.558   0.448  13.328 -0.0628  0.1601  0.3009
  672PW      WP 6951   9.619   0.574  13.330  0.0758  0.1164 -0.3140
  672PW      WM 6952   9.451   0.468  13.416 -0.5868  0.0134 -0.2731
  673PW       W 6953   6.662   2.071   9.951 -0.0101  0.3907 -0.0413
  673PW      WP 6954   6.599   2.084  10.076  0.9912 -0.2542  0.6107
  673PW      WM 6955   6.546   1.995   9.972  0.0536  0.3395  0.1370
  674PW       W 6956  11.495   8.679  12.399 -0.2979 -0.5963 -0.0813
  674PW      WP 6957  11.451   8.802  12.448  0.0367 -0.2819 -0.5317
  674PW      WM 6958  11.372   8.736  12.366  0.0967  0.4227  0.0252
  675PW       W 6959   8.926   7.827  11.601 -0.3362 -0.0981  0.3100
  675PW      WP 6960   8.949   7.914  11.494 -0.0790 -0.5171  0.0113
  675PW      WM 6961   8.866   7.708  11.644  0.0747 -0.3162  0.3120
  676PW       W 6962   2.269   3.271   0.051  0.2240  0.1226 -0.1155
  676PW      WP 6963   2.232   3.309   0.180 -0.2190 -0.0239 -0.1914
  676PW      WM 6964   2.183   3.318  -0.049  0.2980 -0.5536 -0.5290
  677PW       W 6965   1.498  10.220   2.975 -0.1701 -0.2601 -0.1074
  677PW      WP 6966   1.459  10.120   2.884 -0.0120 -0.4386  0.0186
  677PW      WM 6967   1.518  10.309   2.869  0.2925 -0.6002 -0.3229
  678PW       W 6968   9.252   5.592  11.156 -0.4340 -0.1564 -0.0897
  678PW      WP 6969   9.313   5.466  11.146 -0.1572 -0.0251 -0.1022
  678PW      WM 6970   9.216   5.551  11.286 -0.0445  0.1717  0.1338
  679PW       W 6971   7.014   5.610   3.243  0.1818  0.1783  0.1828
  679PW      WP 6972   7.141   5.578   3.195  0.0990 -0.4814  0.3576
  679PW      WM 6973   6.979   5.701   3.344 -0.4013  0.1139  0.0574
  680PW       W 6974  10.450   8.984   4.285 -0.4248 -0.2415  0.3735
  680PW      WP 6975  10.543   8.954   4.385 -0.1188 -0.2488  0.0938
  680PW      WM 6976  10.549   9.047   4.208 -0.1034 -0.5429  0.5284
  681PW       W 6977   8.410   1.259   2.018  0.2169 -0.4117 -0.1069
  681PW      WP 6978   8.353   1.132   2.005  0.3585 -0.4758 -0.1171
  681PW      WM 6979   8.443   1.354   2.116 -0.0910 -0.3628 -0.0464
  682PW       W 6980   6.435   5.025   0.078 -0.4579  0.0342 -0.0426
  682PW      WP 6981   6.400   4.892   0.100 -0.5259  0.1149  0.3701
  682PW      WM 6982   6.311   4.964   0.059 -0.3574 -0.2260  0.1151
  683PW       W 6983   5.576   9.366  13.002  0.0005 -0.4313 -0.1358
  683PW      WP 6984   5.541   9.371  13.137  0.2008  0.1015 -0.0923
  683PW      WM 6985   5.713   9.375  12.972 -0.0250  0.5532 -0.0868
  684PW       W 6986   9.717  12.156   0.146  0.0414  0.4812  0.2513
  684PW      WP 6987   9.690  12.119   0.278  0.2158 -0.2422  0.1075
  684PW      WM 6988   9.827  12.151   0.060 -0.2430 -0.0461 -0.1083
  685PW       W 6989   4.815  11.250  12.995 -0.0057  0.0640 -0.1101
  685PW      WP 6990   4.724  11.230  13.100 -0.5076  0.1778 -0.5041
  685PW      WM 6991   4.714  11.183  12.924 -0.0562  0.3014 -0.2663
  686PW       W 6992   3.526   6.531   3.184  0.2499  0.3138 -0.2414
  686PW      WP 6993   3.401   6.535   3.122 -0.0349 -0.3890  0.2270
  686PW      WM 6994   3.560   6.466   3.303 -0.3373  0.6694  0.1420
  687PW       W 6995  11.461  11.056  11.263 -0.2335 -0.0115 -0.0988
  687PW      WP 6996  11.409  10.930  11.297 -0.3214  0.2251  0.7473
  687PW      WM 6997  11.558  11.012  11.172 -0.2217  0.1764 -0.1797
  688PW       W 6998   7.420   8.523  10.186 -0.2015 -0.0282 -0.1761
  688PW      WP 6999   7.488   8.513  10.063 -0.0830  0.4614 -0.1615
  688PW      WM 7000   7.438   8.385  10.195 -0.1990  0.0007  0.4986
  689PW       W 7001   5.725   9.074   2.275  0.0214 -0.0652 -0.0277
  689PW      WP 7002   5.859   9.036   2.269  0.0680  0.0660  0.1416
  689PW      WM 7003   5.712   9.140   2.152  0.0661  0.2279  0.1187
  690PW       W 7004   5.991  11.302   4.517 -0.0404 -0.5096 -0.1185
  690PW      WP 7005   5.952  11.342   4.389  0.2370  0.5763  0.0870
  690PW      WM 7006   6.119  11.283   4.570 -0.1558 -0.2887  0.2571
  691PW       W 7007   8.360   5.827   4.716 -0.2734 -0.1055 -0.1319
  691PW      WP 7008   8.260   5.910   4.768  0.2603  0.1311  0.6066
  691PW      WM 7009   8.307   5.754   4.609  0.1333 -0.6729  0.0288
  692PW       W 7010  10.895  11.586   4.958 -0.2652  0.0620  0.3800
  692PW      WP 7011  11.023  11.551   5.002 -0.1844 -0.0022  0.1045
  692PW      WM 7012  10.976  11.513   4.869 -0.4778 -0.2242  0.4132
  693PW       W 7013   4.211   2.120   9.552 -0.2710 -0.2071 -0.1863
  693PW      WP 7014   4.203   2.260   9.554  0.1064 -0.1777  0.1678
  693PW      WM 7015   4.322   2.200   9.519 -0.0673 -0.3693  0.0819
  694PW       W 7016   6.356   2.774  12.182  0.0062  0.1842  0.1244
  694PW      WP 7017   6.464   2.843  12.238  0.4650 -0.0020 -0.4674
  694PW      WM 7018   6.258   2.850  12.247  0.4257  0.3144  0.6393
  695PW       W 7019   1.596   9.666  10.209  0.1062  0.6409  0.1264
  695PW      WP 7020   1.514   9.672  10.323 -0.3202  0.2957 -0.1461
  695PW      WM 7021   1.677   9.760  10.274  0.4622  0.1361  0.4483
  696PW       W 7022   5.991   0.296   4.375 -0.0699 -0.2136  0.0859
  696PW      WP 7023   5.894   0.275   4.277 -0.0684 -0.3097  0.1045
  696PW      WM 7024   6.001   0.241   4.504 -0.5692  0.0645  0.2548
  697PW       W 7025   7.512   4.752   1.589  0.1651  0.1107  0.1683
  697PW      WP 7026   7.534   4.669   1.479  0.2735  0.3411  0.0104
  697PW      WM 7027   7.637   4.767   1.651  0.2366 -0.5462  0.2173
  698PW       W 7028   0.948  11.291  13.094  0.0656 -0.2222 -0.0657
  698PW      WP 7029   1.043  11.267  13.194  0.0963  0.0158 -0.0356
  698PW      WM 7030   0.962  11.429  13.077 -0.3491 -0.1973 -0.2636
  699PW       W 7031   2.028   5.432   0.333  0.4959 -0.2657 -0.0125
  699PW      WP 7032   2.060   5.562   0.291 -0.1886 -0.1498 -0.2392
  699PW      WM 7033   2.140   5.433   0.250  0.3075  0.4237 -0.3000
  700PW       W 7034   5.776  12.071   5.096  0.0659 -0.0720 -0.0439
  700PW      WP 7035   5.772  11.935   5.063 -0.0519 -0.1285  0.1927
  700PW      WM 7036   5.890  12.105   5.170 -0.0096  0.1842 -0.0387
  701PW       W 7037   9.175   1.480  10.558  0.0540 -0.2112 -0.2859
  701PW      WP 7038   9.309   1.504  10.589 -0.0534  0.0355  0.0223
  701PW      WM 7039   9.223   1.446  10.431  0.2619 -0.1023 -0.2384
  702PW       W 7040  12.124   1.815  11.013  0.3654 -0.2200 -0.0682
  702PW      WP 7041  12.065   1.740  10.910 -0.3461 -0.3486  0.3963
  702PW      WM 7042  12.162   1.943  11.053 -0.2050 -0.0129 -0.1411
  703PW       W 7043   2.458   8.647   0.095  0.0345 -0.1773 -0.0885
  703PW      WP 7044   2.474   8.604  -0.037 -0.1966 -0.2393 -0.0979
  703PW      WM 7045   2.319   8.636   0.080 -0.0349  0.1659  0.2055
  704PW       W 7046   9.881   8.105  11.376 -0.3922  0.1035 -0.2032
  704PW      WP 7047   9.913   8.116  11.512  0.0702 -0.2586 -0.2689
  704PW      WM 7048   9.986   8.034  11.315 -0.7588  0.0378 -0.7954
  705PW       W 7049   2.159   7.051   9.102 -0.3404 -0.5081 -0.3243
  705PW      WP 7050   2.285   6.991   9.097  0.0449  0.2583 -0.7000
  705PW      WM 7051   2.035   7.085   9.157  0.1127 -0.0717  0.5228
  706PW       W 7052   5.940   5.923   1.583  0.0001  0.3149  0.0316
  706PW      WP 7053   5.804   5.930   1.547 -0.0760  0.0743  0.2527
  706PW      WM 7054   5.894   5.926   1.715 -0.1825 -0.0883 -0.0134
  707PW       W 7055   6.296   3.824   4.052 -0.1303  0.0857  0.0484
  707PW      WP 7056   6.260   3.914   3.950  0.0686  0.1121  0.0003
  707PW      WM 7057   6.311   3.793   4.187  0.2219  0.2368  0.0493
  708PW       W 7058   1.474   6.026  10.378  0.1497 -0.0642  0.4561
  708PW      WP 7059   1.611   6.052  10.392  0.2317 -0.3617  0.2614
  708PW      WM 7060   1.380   6.027  10.275 -0.0689 -0.0386  0.6517
  709PW       W 7061   2.281   6.734   4.473  0.1761 -0.1519 -0.1385
  709PW      WP 7062   2.146   6.707   4.449  0.1595  0.0466 -0.2816
  709PW      WM 7063   2.337   6.636   4.390 -0.0672  0.1864 -0.7350
  710PW       W 7064  11.803  11.495  10.857 -0.4319  0.4168 -0.2578
  710PW      WP 7065  11.689  11.419  10.828 -0.2841  0.2482 -0.4031
  710PW      WM 7066  11.809  11.581  10.968 -0.4163  0.3574 -0.2124
  711PW       W 7067  10.045   8.335   0.784  0.0191  0.1874  0.0355
  711PW      WP 7068  10.028   8.299   0.650 -0.2650  0.3244  0.0295
  711PW      WM 7069   9.965   8.233   0.839  0.7141 -0.3947  0.0431
  712PW       W 7070   8.010   4.481   1.027  0.0541 -0.0875 -0.2729
  712PW      WP 7071   8.078   4.571   1.109  0.2214 -0.0680 -0.4307
  712PW      WM 7072   8.027   4.343   1.006  0.0757 -0.1250 -0.0242
  713PW       W 7073   7.014  12.040   4.373 -0.0480 -0.3394  0.5089
  713PW      WP 7074   6.936  12.151   4.407 -0.2463 -0.2734 -0.1033
  713PW      WM 7075   7.094  11.930   4.336 -0.0419 -0.1762 -0.0131
  714PW       W 7076   5.296   0.534   4.872  0.0761 -0.5784  0.1441
  714PW      WP 7077   5.402   0.568   4.787 -0.2248 -0.2272 -0.1105
  714PW      WM 7078   5.247   0.441   4.964 -0.7582 -0.2251  0.1071
  715PW       W 7079   8.267  10.919   3.121  0.2370 -0.1497  0.0457
  715PW      WP 7080   8.340  10.881   3.007 -0.0482 -0.2293 -0.1153
  715PW      WM 7081   8.391  10.961   3.171  0.2539 -0.4141  0.2406
  716PW       W 7082   9.578   0.395   4.770 -0.5495 -0.5225 -0.3643
  716PW      WP 7083   9.479   0.438   4.859 -0.2131 -0.2280 -0.1180
  716PW      WM 7084   9.602   0.257   4.766 -0.3535 -0.5130  0.1321
  717PW       W 7085   8.384   0.316   2.532  0.7781  0.2451  0.4046
  717PW      WP 7086   8.346   0.181   2.544 -0.3275  0.4048 -0.4341
  717PW      WM 7087   8.468   0.396   2.611  0.5200  0.0997  0.8492
  718PW       W 7088   2.590   9.372  11.992 -0.0501  0.1775 -0.0583
  718PW      WP 7089   2.561   9.390  11.856  0.0651 -0.2251 -0.1420
  718PW      WM 7090   2.671   9.328  12.096 -0.4923  0.3518  0.3797
  719PW       W 7091  11.950   5.717   1.683 -0.0604  0.0923 -0.1368
  719PW      WP 7092  11.999   5.613   1.762  0.0911  0.3996  0.1911
  719PW      WM 7093  11.921   5.722   1.546 -0.0427  0.1378 -0.1389
  720PW       W 7094   5.093   5.018  10.538 -0.0962  0.1328 -0.0412
  720PW      WP 7095   5.063   4.911  10.622 -0.2542  0.1504 -0.0719
  720PW      WM 7096   5.092   5.083  10.414 -0.2481  0.4846  0.1374
  721PW       W 7097   0.694  11.937   4.094 -0.4737  0.3626 -0.2021
  721PW      WP 7098   0.575  11.900   4.031 -0.1459 -0.3630 -0.4520
  721PW      WM 7099   0.739  11.820   4.156 -0.6171  0.6171  0.4194
  722PW       W 7100   3.805   1.836   9.207 -0.2067 -0.0531 -0.0320
  722PW      WP 7101   3.718   1.930   9.150 -0.4054  0.0158  0.3680
  722PW      WM 7102   3.874   1.720   9.171 -0.1229 -0.0335  0.0622
  723PW       W 7103   0.741   9.749   2.454 -0.0422  0.3902 -0.1528
  723PW      WP 7104   0.663   9.842   2.385 -0.3822  0.2492  0.0317
  723PW      WM 7105   0.784   9.852   2.538  0.1680  0.4027 -0.2716
  724PW       W 7106   0.804   0.704  10.013 -0.0239  0.2711 -0.2167
  724PW      WP 7107   0.792   0.765  10.138 -0.1945 -0.4681  0.1563
  724PW      WM 7108   0.914   0.773   9.961  0.2358  0.0380  0.0048
  725PW       W 7109   0.100  11.743  10.911 -0.4418 -0.0111 -0.1270
  725PW      WP 7110   0.072  11.716  10.776 -0.0019  0.3006 -0.2908
  725PW      WM 7111   0.168  11.649  10.832  0.0665  0.1503  0.0956
  726PW       W 7112   3.315   5.726   1.633  0.2260 -0.0177  0.3762
  726PW      WP 7113   3.220   5.673   1.721 -0.0732  0.2088  0.2014
  726PW      WM 7114   3.359   5.770   1.508 -0.2024  0.0970  0.2545
  727PW       W 7115   9.777   3.969   3.628 -0.1277  0.4043 -0.0160
  727PW      WP 7116   9.901   3.967   3.562 -0.0382 -0.0617  0.1494
  727PW      WM 7117   9.693   3.912   3.532 -0.0079 -0.1344  0.1846
  728PW       W 7118   8.784   6.060   0.135 -0.0294  0.4834  0.2373
  728PW      WP 7119   8.754   6.066   0.272  0.0583  0.1899  0.2728
  728PW      WM 7120   8.657   6.116   0.149 -0.2660  0.0348  0.0005
  729PW       W 7121   5.042   8.656   1.904 -0.0196 -0.0071  0.0066
  729PW      WP 7122   4.977   8.532   1.898 -0.0229 -0.0338  0.4384
  729PW      WM 7123   4.933   8.678   1.988 -0.1896  0.3747 -0.2970
  730PW       W 7124   7.447   5.459   1.885 -0.3482 -0.2577 -0.2428
  730PW      WP 7125   7.465   5.449   1.747 -0.2720 -0.6418 -0.2108
  730PW      WM 7126   7.482   5.419   2.015 -0.2805  0.0653 -0.1562
  731PW       W 7127   8.959  10.019   0.508 -0.3773 -0.0899 -0.0874
  731PW      WP 7128   8.989  10.028   0.645 -0.2305  0.3954 -0.1405
  731PW      WM 7129   8.883  10.024   0.626 -0.3528  0.1935 -0.0804
  732PW       W 7130  11.557  10.859   3.991 -0.1418 -0.0697  0.3762
  732PW      WP 7131  11.653  10.888   4.090 -0.1068 -0.1083  0.3539
  732PW      WM 7132  11.523  10.949   3.890  0.4440 -0.8009 -0.5575
  733PW       W 7133   9.991   0.423   9.871  0.1388 -0.0248  0.2028
  733PW      WP 7134   9.928   0.442   9.747  0.3744  0.6463  0.1666
  733PW      WM 7135   9.960   0.453  10.004  0.6799  0.1313  0.3034
  734PW       W 7136   4.235   7.469  12.773 -0.0430 -0.1074 -0.1263
  734PW      WP 7137   4.116   7.404  12.739 -0.2015  0.1895 -0.1621
  734PW      WM 7138   4.214   7.604  12.804 -0.2823 -0.2279  0.2764
  735PW       W 7139   0.485  11.172  13.001 -0.3051  0.2467 -0.2860
  735PW      WP 7140   0.385  11.267  12.979 -0.5350  0.0665 -0.0448
  735PW      WM 7141   0.481  11.076  13.103  0.5333  0.3089 -0.1547
  736PW       W 7142  11.176   1.107   9.809  0.0866  0.1458  0.0457
  736PW      WP 7143  11.241   1.231   9.797  0.3030  0.0532  0.2230
  736PW      WM 7144  11.297   1.039   9.790  0.0258  0.0631 -0.0530
  737PW       W 7145   6.278   0.118   0.301  0.3218 -0.1382  0.2887
  737PW      WP 7146   6.275   0.258   0.302 -0.0409 -0.1226 -0.4146
  737PW      WM 7147   6.191   0.148   0.407 -0.2726 -0.2482 -0.1401
  738PW       W 7148   3.198   5.482   2.173 -0.0669 -0.0718  0.8168
  738PW      WP 7149   3.137   5.372   2.113  0.5162  0.0869 -0.1897
  738PW      WM 7150   3.146   5.535   2.291 -0.3074  0.0916  0.6436
  739PW       W 7151   4.987   9.441  10.259 -0.3667 -0.4255 -0.1336
  739PW      WP 7152   5.113   9.385  10.288 -0.2262  0.0635  0.2793
  739PW      WM 7153   5.025   9.382  10.138 -0.0517  0.1299 -0.3230
  740PW       W 7154   2.472   6.488   0.510  0.1012 -0.1214  0.5966
  740PW      WP 7155   2.395   6.593   0.561  0.0628  0.0087  0.2780
  740PW      WM 7156   2.609   6.474   0.537  0.2223 -0.0829  0.0537
  741PW       W 7157   3.723   6.526   0.013 -0.4641  0.5901  0.2420
  741PW      WP 7158   3.666   6.446   0.113  0.3283  0.2553  0.4670
  741PW      WM 7159   3.609   6.500  -0.064  0.1440  0.1962 -0.6144
  742PW       W 7160   4.329  11.979  11.872 -0.1783  0.8029 -0.4743
  742PW      WP 7161   4.468  11.968  11.885 -0.2396  0.0466 -0.2277
  742PW      WM 7162   4.310  11.878  11.778 -0.8421  0.3241  0.1165
  743PW       W 7163   9.627   1.092   1.490 -0.1150  0.0525 -0.3442
  743PW      WP 7164   9.653   0.992   1.583  0.0550 -0.1420 -0.5936
  743PW      WM 7165   9.751   1.126   1.546 -0.1972 -0.0518 -0.0945
  744PW       W 7166   5.817   7.224   4.671  0.2214 -0.0832  0.2093
  744PW      WP 7167   5.862   7.095   4.702 -0.2775 -0.2356  0.3419
  744PW      WM 7168   5.697   7.262   4.609  0.3574 -0.3111 -0.2154
  745PW       W 7169   8.068  10.779  12.944  0.0083 -0.0603 -0.5218
  745PW      WP 7170   7.992  10.763  12.827  0.1064 -0.7061 -0.5194
  745PW      WM 7171   8.202  10.768  12.983 -0.1965 -0.0674  0.2575
  746PW       W 7172   0.093   4.069   9.872 -0.0935 -0.0193 -0.0061
  746PW      WP 7173   0.071   4.090  10.009  0.4032  0.2934  0.0424
  746PW      WM 7174   0.212   4.009   9.829  0.0238  0.3536 -0.2295
  747PW       W 7175   7.544  11.861   9.886  0.0401  0.1085  0.1147
  747PW      WP 7176   7.474  11.982   9.886 -0.4420 -0.1562 -0.0598
  747PW      WM 7177   7.576  11.851  10.022 -0.0361  0.7207  0.1915
  748PW       W 7178   4.466   1.091  11.303  0.4223 -0.0452  0.1934
  748PW      WP 7179   4.331   1.079  11.266  0.4244  0.2485  0.0720
  748PW      WM 7180   4.517   1.168  11.197  0.5497  0.1057  0.3604
  749PW       W 7181   9.642   7.467   3.963  0.1217 -0.1533 -0.0590
  749PW      WP 7182   9.667   7.334   3.925  0.1273 -0.0835 -0.3070
  749PW      WM 7183   9.515   7.521   3.938  0.1567 -0.1062 -0.1385
  750PW       W 7184  10.626  11.532   1.272  0.3178 -0.0855  0.2025
  750PW      WP 7185  10.594  11.471   1.150  0.3494 -0.1402  0.2213
  750PW      WM 7186  10.729  11.440   1.251 -0.1681 -0.5311 -0.4432
  751PW       W 7187   6.546   2.129   9.034 -0.1754  0.6583 -0.0952
  751PW      WP 7188   6.493   2.095   8.909  0.2671  0.4278 -0.2307
  751PW      WM 7189   6.613   2.169   8.917 -0.3287  0.5133 -0.2349
  752PW       W 7190   6.114   1.628   5.053  0.2424  0.3240 -0.0719
  752PW      WP 7191   6.070   1.706   5.161  0.2536  0.2601 -0.0211
  752PW      WM 7192   6.225   1.594   4.975  0.2314  0.3974 -0.1202
  753PW       W 7193  11.574   2.790   0.359 -0.0747 -0.0283 -0.1384
  753PW      WP 7194  11.472   2.886   0.367  0.0336  0.0815 -0.0674
  753PW      WM 7195  11.611   2.780   0.224 -0.3900  0.0577 -0.2368
  754PW       W 7196   8.774   2.440  11.412 -0.7837  0.4320  0.0419
  754PW      WP 7197   8.762   2.571  11.367  0.1240  0.5335  0.0110
  754PW      WM 7198   8.872   2.409  11.507 -0.7206  0.0396 -0.1386
  755PW       W 7199   8.385   8.337   5.097  0.3138  0.1018 -0.4129
  755PW      WP 7200   8.262   8.401   5.119  0.2850 -0.0327 -0.1627
  755PW      WM 7201   8.513   8.334   5.153  0.1285  0.3473  0.0484
  756PW       W 7202   3.692   0.960   0.030  0.1104 -0.0392 -0.1499
  756PW      WP 7203   3.631   1.074   0.083 -0.3357 -0.2720 -0.1328
  756PW      WM 7204   3.742   0.854   0.105 -0.5391 -0.2862 -0.0328
  757PW       W 7205  11.588   2.528   9.515 -0.2181 -0.2955 -0.1510
  757PW      WP 7206  11.615   2.646   9.586  0.0333 -0.5271  0.1529
  757PW      WM 7207  11.700   2.517   9.432 -0.0868  0.4233 -0.1027
  758PW       W 7208  11.435   3.223   1.071 -0.2605 -0.3001 -0.1125
  758PW      WP 7209  11.354   3.316   1.004 -0.1105  0.0407  0.1639
  758PW      WM 7210  11.565   3.223   1.020 -0.1446  0.4096  0.1304
  759PW       W 7211   6.461   4.340   9.867  0.3172  0.0787 -0.0610
  759PW      WP 7212   6.483   4.204   9.892  0.0185  0.0294 -0.0543
  759PW      WM 7213   6.543   4.383   9.761  0.3889 -0.1604 -0.1065
  760PW       W 7214   4.222  10.221  10.653  0.1141  0.1403 -0.0926
  760PW      WP 7215   4.158  10.309  10.565 -0.3443 -0.0117  0.0748
  760PW      WM 7216   4.354  10.249  10.617  0.1123  0.5573  0.1881
  761PW       W 7217  10.450   6.505  10.311  0.1038 -0.0762  0.1813
  761PW      WP 7218  10.396   6.545  10.188  0.5860 -0.2387 -0.0962
  761PW      WM 7219  10.523   6.424  10.223 -0.0993 -0.7439  0.5836
  762PW       W 7220   9.229   5.365  12.029  0.0135  0.1278 -0.0356
  762PW      WP 7221   9.335   5.369  12.121 -0.1102 -0.7434  0.1880
  762PW      WM 7222   9.248   5.232  12.068  0.3340  0.2058  0.0925
  763PW       W 7223  10.815   4.204  12.216  0.0175  0.0739 -0.0135
  763PW      WP 7224  10.695   4.244  12.274 -0.1391  0.0531 -0.3128
  763PW      WM 7225  10.944   4.252  12.241  0.0366  0.2102 -0.3365
  764PW       W 7226   9.979   1.524   9.001  0.0817 -0.1315  0.4815
  764PW      WP 7227  10.044   1.624   9.073  0.1888  0.1252  0.0463
  764PW      WM 7228   9.905   1.592   8.904  0.5772  0.0150  0.1880
  765PW       W 7229  11.675   2.811   1.356  0.1261 -0.2461 -0.0598
  765PW      WP 7230  11.796   2.774   1.415  0.3142  0.5197  0.0991
  765PW      WM 7231  11.594   2.804   1.469 -0.3017  0.0289 -0.3349
  766PW       W 7232   3.534   5.417   9.308 -0.1329  0.0932 -0.0343
  766PW      WP 7233   3.647   5.499   9.317 -0.0627  0.0205 -0.2411
  766PW      WM 7234   3.493   5.328   9.408  0.0530  0.2167  0.1559
  767PW       W 7235  11.898   3.631  12.827  0.3137  0.3927 -0.4099
  767PW      WP 7236  11.912   3.688  12.954 -0.4408  0.2030 -0.2136
  767PW      WM 7237  11.932   3.538  12.728 -0.0469 -0.0809 -0.1091
  768PW       W 7238   9.621   1.234   8.910 -0.3054  0.0214  0.0403
  768PW      WP 7239   9.681   1.357   8.940 -0.4844  0.1820 -0.2419
  768PW      WM 7240   9.714   1.186   8.817 -0.0353  0.3921  0.1062
  769PW       W 7241   3.000   7.217   3.935  0.1454  0.0251 -0.1638
  769PW      WP 7242   3.068   7.144   4.034 -0.4371 -0.4294 -0.0728
  769PW      WM 7243   3.029   7.121   3.838 -0.7218 -0.1109 -0.3243
  770PW       W 7244   7.576   2.311  11.777  0.2992  0.3025  0.0819
  770PW      WP 7245   7.490   2.330  11.669 -0.1292 -0.4401  0.2594
  770PW      WM 7246   7.536   2.220  11.679  0.0260  0.1358  0.3428
  771PW       W 7247  11.748   9.878   0.131 -0.2819  0.3549  0.0479
  771PW      WP 7248  11.707   9.925   0.005 -0.1674 -0.3051 -0.2528
  771PW      WM 7249  11.886   9.857   0.121 -0.2603  0.3955  0.2274
  772PW       W 7250   0.680  11.611   2.529 -0.1473  0.3753 -0.0861
  772PW      WP 7251   0.760  11.709   2.588 -0.2483  0.3860  0.0339
  772PW      WM 7252   0.598  11.611   2.416  0.1273  0.3978 -0.2911
  773PW       W 7253   0.086   0.144  11.389  0.1313 -0.1348  0.2913
  773PW      WP 7254  -0.043   0.108  11.429 -0.1631  0.3054 -0.1856
  773PW      WM 7255   0.164   0.166  11.503  0.8458 -0.2556 -0.1432
  774PW       W 7256   8.270   2.554   0.835  0.0852 -0.6411  0.1572
  774PW      WP 7257   8.142   2.531   0.887 -0.1668  0.1092 -0.0642
  774PW      WM 7258   8.165   2.631   0.885  0.1942 -0.5819  0.2980
  775PW       W 7259   9.546   0.847   2.490  0.0992 -0.3382 -0.0761
  775PW      WP 7260   9.624   0.776   2.398  0.0481 -0.2856 -0.1604
  775PW      WM 7261   9.418   0.794   2.467  0.0806 -0.2906 -0.0846
  776PW       W 7262   6.514  11.873   0.128 -0.3575  0.1644  0.3437
  776PW      WP 7263   6.472  11.778   0.221  0.3641 -0.1860  0.3439
  776PW      WM 7264   6.396  11.848   0.200 -0.1589 -0.2732  0.5335
  777PW       W 7265   3.635   4.075  11.562  0.0539  0.3350 -0.4075
  777PW      WP 7266   3.715   4.001  11.474 -0.3965 -0.4787 -0.1790
  777PW      WM 7267   3.730   4.144  11.639  0.0047  0.3616 -0.3702
  778PW       W 7268   5.407  12.150  10.513 -0.1268 -0.4002 -0.6081
  778PW      WP 7269   5.343  12.106  10.630  0.0873  0.4487 -0.1294
  778PW      WM 7270   5.541  12.120  10.540 -0.1635 -0.1372 -0.0713
  779PW       W 7271   6.354   9.919  11.494  0.2389 -0.3529 -0.1226
  779PW      WP 7272   6.278   9.875  11.604 -0.2183  0.0028 -0.2814
  779PW      WM 7273   6.404   9.951  11.621 -0.3824  0.7244 -0.0852
  780PW       W 7274   6.970   9.146   9.579  0.0254  0.1293 -0.2024
  780PW      WP 7275   6.994   9.034   9.499  0.0969 -0.1896  0.2459
  780PW      WM 7276   6.839   9.152   9.627  0.1135 -0.3674  0.1379
  781PW       W 7277   3.907   7.996   3.071  0.0527 -0.2116  0.0793
  781PW      WP 7278   3.965   7.982   3.197 -0.0122 -0.0676  0.1254
  781PW      WM 7279   4.005   8.095   3.089  0.2160 -0.4078  0.2999
  782PW       W 7280  11.284   2.327   1.464  0.1893 -0.3958 -0.2312
  782PW      WP 7281  11.191   2.235   1.412 -0.3984  0.1607 -0.2373
  782PW      WM 7282  11.391   2.307   1.551  0.3582  0.1101 -0.3110
  783PW       W 7283   7.339   7.826   0.919 -0.3397 -0.0618 -0.0946
  783PW      WP 7284   7.311   7.700   0.863  0.2069 -0.2918  0.1168
  783PW      WM 7285   7.297   7.817   1.052 -0.0644  0.2536  0.0191
  784PW       W 7286   4.632   2.365   4.670  0.3030  0.1364  0.0230
  784PW      WP 7287   4.631   2.226   4.657 -0.1984  0.1422 -0.0987
  784PW      WM 7288   4.656   2.347   4.533  0.0452  0.1032 -0.0193
  785PW       W 7289  10.869   0.600  10.014 -0.0969 -0.3054 -0.4411
  785PW      WP 7290  10.938   0.484  10.050  0.3369  0.0568 -0.0306
  785PW      WM 7291  10.900   0.725   9.959 -0.5100  0.0634  0.1020
  786PW       W 7292   7.964   5.165  11.502 -0.0019  0.0318  0.0071
  786PW      WP 7293   7.824   5.164  11.500 -0.0002 -0.1252 -0.0865
  786PW      WM 7294   7.941   5.244  11.615 -0.0781  0.2129 -0.1324
  787PW       W 7295  11.922  11.062   4.213  0.0639  0.2887  0.1151
  787PW      WP 7296  12.045  11.110   4.166  0.2890  0.3395  0.7101
  787PW      WM 7297  11.844  11.025   4.103 -0.1045  0.1685  0.2732
  788PW       W 7298   1.989   8.010   4.675 -0.2021  0.0932  0.2063
  788PW      WP 7299   1.983   7.962   4.543 -0.0167  0.2069  0.1548
  788PW      WM 7300   2.037   8.118   4.750  0.1687 -0.1148  0.2799
  789PW       W 7301   5.640   8.686   2.572 -0.2461  0.3287  0.2974
  789PW      WP 7302   5.565   8.727   2.683 -0.0375  0.1006  0.5300
  789PW      WM 7303   5.745   8.619   2.636 -0.3067 -0.3695 -0.2680
  790PW       W 7304   4.217   2.559   0.306  0.2813  0.1379  0.1599
  790PW      WP 7305   4.287   2.565   0.185  0.3282 -0.0131  0.1793
  790PW      WM 7306   4.108   2.501   0.372  0.2293 -0.0355 -0.0748
  791PW       W 7307   1.957   1.789  12.787 -0.1159  0.0852  0.1476
  791PW      WP 7308   1.971   1.717  12.668  0.5446  0.3150  0.0626
  791PW      WM 7309   1.897   1.915  12.802  0.2048  0.2562  0.0430
  792PW       W 7310   3.002   5.070   0.537  0.1511 -0.2173  0.2095
  792PW      WP 7311   2.901   5.115   0.623  0.1122  0.4497 -0.1532
  792PW      WM 7312   2.900   4.980   0.506  0.3217 -0.2148 -0.4224
  793PW       W 7313   2.945   5.931   3.774  0.0738  0.3115  0.4638
  793PW      WP 7314   2.876   6.052   3.761 -0.1331  0.1368 -0.2825
  793PW      WM 7315   3.059   6.006   3.806  0.4145  0.0580 -0.0819
  794PW       W 7316  11.345  11.542   0.218 -0.0145 -0.2258 -0.3278
  794PW      WP 7317  11.335  11.525   0.357 -0.3786 -0.1675 -0.3413
  794PW      WM 7318  11.456  11.624   0.241 -0.3047  0.3105 -0.7342
  795PW       W 7319   6.782   0.161   8.863  0.0553  0.0925 -0.0528
  795PW      WP 7320   6.892   0.227   8.807  0.0934  0.0537 -0.0243
  795PW      WM 7321   6.725   0.251   8.953 -0.1655 -0.1334  0.0397
  796PW       W 7322   7.889  12.074   2.440  0.0370  0.0033  0.1980
  796PW      WP 7323   7.881  12.213   2.458 -0.3638  0.0942 -0.5143
  796PW      WM 7324   7.889  11.935   2.425  0.2476  0.0316 -0.1269
  797PW       W 7325  11.125  10.273   1.659  0.0969  0.0515 -0.0138
  797PW      WP 7326  11.129  10.373   1.561  0.0254  0.1658  0.0984
  797PW      WM 7327  11.069  10.208   1.770 -0.4311  0.7783  0.1808
  798PW       W 7328   5.382   0.261  13.163 -0.2221  0.0689  0.0109
  798PW      WP 7329   5.411   0.376  13.236  0.1242 -0.2235  0.3592
  798PW      WM 7330   5.471   0.270  13.055  0.2875 -0.1365  0.3926
  799PW       W 7331   0.657   7.988   1.388 -0.1786  0.0292 -0.4433
  799PW      WP 7332   0.712   8.117   1.392  0.0830 -0.0844 -0.1551
  799PW      WM 7333   0.716   7.951   1.267  0.2198  0.1874 -0.3087
  800PW       W 7334   8.873   5.654   0.525 -0.0440  0.1433 -0.0491
  800PW      WP 7335   8.968   5.714   0.608 -0.0159 -0.1997  0.1797
  800PW      WM 7336   8.826   5.760   0.603 -0.3804 -0.1565  0.1715
  801PW       W 7337  10.603  11.974   3.479 -0.3568 -0.2074 -0.3635
  801PW      WP 7338  10.609  12.059   3.590 -0.1912 -0.0250 -0.5085
  801PW      WM 7339  10.626  11.844   3.525  0.0242 -0.0484 -0.0770
  802PW       W 7340   8.115   4.195  10.535  0.1096  0.1302  0.1412
  802PW      WP 7341   8.004   4.255  10.475  0.0839  0.3961  0.4412
  802PW      WM 7342   8.040   4.272  10.624  0.0345  0.2845 -0.0539
  803PW       W 7343   7.125   0.314   7.951 -0.0285  0.1095  0.0374
  803PW      WP 7344   7.070   0.212   8.029  0.0738  0.0037 -0.0271
  803PW      WM 7345   7.235   0.340   8.033  0.3510  0.3974 -0.5309
  804PW       W 7346   1.344   4.410   8.334 -0.5159 -0.3807  0.2153
  804PW      WP 7347   1.367   4.547   8.329 -0.4107 -0.3913  0.3769
  804PW      WM 7348   1.337   4.275   8.373  0.2869 -0.4931  0.0568
  805PW       W 7349   8.321   5.509  11.349  0.0487 -0.0154 -0.3985
  805PW      WP 7350   8.443   5.440  11.346  0.4138  0.5835 -0.3011
  805PW      WM 7351   8.204   5.507  11.272 -0.1798 -0.3072 -0.0600
  806PW       W 7352  10.880   5.789   9.557  0.1679  0.2872 -0.1757
  806PW      WP 7353  10.976   5.691   9.583 -0.1458  0.0383  0.0906
  806PW      WM 7354  10.752   5.733   9.556  0.0666  0.5109 -0.3458
  807PW       W 7355   5.765   3.679  12.603 -0.1190 -0.2310  0.0415
  807PW      WP 7356   5.893   3.630  12.632  0.1271  0.3314 -0.0423
  807PW      WM 7357   5.730   3.702  12.736 -0.0143  0.2296 -0.0035
  808PW       W 7358   1.299   2.437   0.351  0.4511  0.1080  0.1648
  808PW      WP 7359   1.339   2.328   0.428  0.4816 -0.0171 -0.0234
  808PW      WM 7360   1.174   2.478   0.301  0.2623  0.0248  0.5530
  809PW       W 7361   8.704   6.163   3.592 -0.1943 -0.2180  0.2271
  809PW      WP 7362   8.802   6.065   3.612 -0.1329 -0.2629 -0.2418
  809PW      WM 7363   8.718   6.122   3.459  0.2450  0.0385  0.1846
  810PW       W 7364  11.324   8.461  10.310  0.0589 -0.1151 -0.1261
  810PW      WP 7365  11.262   8.440  10.434 -0.2658  0.0272 -0.2603
  810PW      WM 7366  11.205   8.500  10.249  0.0595  0.0207 -0.0415
  811PW       W 7367   3.674   4.838   1.547 -0.0263  0.1826  0.4296
  811PW      WP 7368   3.708   4.817   1.681  0.2499 -0.5450  0.2684
  811PW      WM 7369   3.720   4.890   1.425 -0.2149 -0.0855  0.2378
  812PW       W 7370  11.798   4.920   2.620 -0.1307 -0.0122 -0.2714
  812PW      WP 7371  11.763   5.008   2.722  0.4889 -0.2492  0.1780
  812PW      WM 7372  11.732   4.990   2.518 -0.1364 -0.3752 -0.5251
  813PW       W 7373   6.644   5.585   5.200 -0.1258 -0.3052  0.1411
  813PW      WP 7374   6.719   5.662   5.111 -0.6582  0.4615  0.2961
  813PW      WM 7375   6.718   5.467   5.204 -0.4391 -0.4993  0.4946
  814PW       W 7376  10.497  11.883  12.037 -0.0152  0.3042  0.1403
  814PW      WP 7377  10.487  11.997  11.957  0.0775 -0.0109 -0.3424
  814PW      WM 7378  10.527  11.829  12.163 -0.0368 -0.1346 -0.0344
  815PW       W 7379   7.427   3.385  12.305 -0.1099  0.3045 -0.1863
  815PW      WP 7380   7.480   3.379  12.435 -0.6562 -0.2098  0.0350
  815PW      WM 7381   7.342   3.496  12.301 -0.2543  0.2073  0.0702
  816PW       W 7382   0.392   4.809   5.085  0.2839  0.2506  0.5559
  816PW      WP 7383   0.525   4.767   5.072  0.1959  0.0988  0.0525
  816PW      WM 7384   0.459   4.827   4.964  0.0363  0.3647  0.4327
  817PW       W 7385   8.703   9.155   1.890 -0.1647  0.2052 -0.0062
  817PW      WP 7386   8.841   9.165   1.909 -0.0650 -0.4288 -0.2622
  817PW      WM 7387   8.616   9.168   1.998 -0.0416 -0.1680  0.1484
  818PW       W 7388  11.881   6.553   8.641 -0.0176  0.3869 -0.1612
  818PW      WP 7389  11.770   6.618   8.586 -0.5299 -0.2075  0.1037
  818PW      WM 7390  12.005   6.528   8.702 -0.0145  0.0134 -0.3108
  819PW       W 7391   2.196   3.293  12.868  0.2486  0.3060  0.1938
  819PW      WP 7392   2.197   3.247  12.735 -0.2030 -0.2118  0.3552
  819PW      WM 7393   2.164   3.407  12.793  0.0621  0.0807 -0.0780
  820PW       W 7394   8.353   7.462   8.992  0.3231  0.1855 -0.1361
  820PW      WP 7395   8.449   7.379   8.932 -0.0547 -0.7123  0.4056
  820PW      WM 7396   8.353   7.597   9.030 -0.3130  0.2497 -0.3052
  821PW       W 7397   8.775  11.627  11.199  0.5300  0.0759 -0.1699
  821PW      WP 7398   8.915  11.615  11.204  0.5489  0.3604  0.3636
  821PW      WM 7399   8.755  11.761  11.237 -0.3828 -0.1549  0.2941
  822PW       W 7400   4.796   5.352  12.637  0.3042 -0.1293  0.1680
  822PW      WP 7401   4.719   5.255  12.704 -0.2119  0.2820  0.2003
  822PW      WM 7402   4.769   5.393  12.506  0.5602  0.0531  0.1679
  823PW       W 7403   3.907  10.995  10.750  0.1728  0.0102  0.6321
  823PW      WP 7404   3.879  11.130  10.776  0.3387  0.1095  0.3276
  823PW      WM 7405   4.027  10.937  10.710  0.0392  0.0426  0.1431
  824PW       W 7406   6.513   5.493  12.590 -0.5964 -0.3251 -0.3034
  824PW      WP 7407   6.557   5.361  12.578 -0.1285 -0.1963 -0.1268
  824PW      WM 7408   6.441   5.571  12.681  0.0158 -0.3635  0.2525
  825PW       W 7409   0.546   6.604  12.394  0.5532 -0.0247  0.0042
  825PW      WP 7410   0.562   6.607  12.255  0.1875  0.1223 -0.0422
  825PW      WM 7411   0.453   6.613  12.499 -0.1770  0.1324 -0.6077
  826PW       W 7412   2.090  10.550   2.375 -0.4096 -0.0638 -0.3553
  826PW      WP 7413   2.184  10.629   2.443  0.0579 -0.1307 -0.8810
  826PW      WM 7414   2.115  10.455   2.474 -0.0507  0.2107 -0.1688
  827PW       W 7415   5.975   5.052   8.708  0.0672  0.3573  0.2617
  827PW      WP 7416   6.055   4.972   8.625  0.1084  0.5040  0.1582
  827PW      WM 7417   5.945   5.155   8.798  0.4717  0.3121  0.4592
  828PW       W 7418   3.778   2.894   4.438 -0.1400  0.2938  0.1134
  828PW      WP 7419   3.755   2.968   4.555 -0.3107 -0.0389  0.2969
  828PW      WM 7420   3.655   2.843   4.483 -0.1886  0.0040 -0.3236
  829PW       W 7421   8.508   4.110   3.533  0.5653 -0.3148  0.0997
  829PW      WP 7422   8.508   4.073   3.668  0.0097  0.4081  0.3324
  829PW      WM 7423   8.529   3.996   3.454  0.4233 -0.1573 -0.1742
  830PW       W 7424   2.737   7.397  12.239  0.0579  0.2230  0.0919
  830PW      WP 7425   2.794   7.525  12.233  0.2209  0.1670  0.3561
  830PW      WM 7426   2.765   7.348  12.111 -0.1722  0.4096 -0.0346
  831PW       W 7427   7.429  11.881  11.870  0.3254  0.2426  0.1729
  831PW      WP 7428   7.504  11.890  11.752  0.0065 -0.0631 -0.0609
  831PW      WM 7429   7.370  11.893  11.997 -0.5011 -0.2287 -0.1323
  832PW       W 7430   8.004   7.563   3.249  0.2097  0.4417  0.0436
  832PW      WP 7431   8.033   7.642   3.137 -0.0656  0.4542 -0.0241
  832PW      WM 7432   8.078   7.607   3.359  0.4088 -0.1954  0.1845
  833PW       W 7433   0.595   5.954   2.337  0.2019  0.3601  0.0264
  833PW      WP 7434   0.588   5.866   2.446  0.1239  0.0942 -0.1889
  833PW      WM 7435   0.626   5.885   2.219 -0.5353 -0.1140  0.0783
  834PW       W 7436   4.777   4.027  10.622 -0.1589 -0.0188  0.2419
  834PW      WP 7437   4.732   3.899  10.588  0.0719 -0.0071 -0.1320
  834PW      WM 7438   4.917   4.031  10.620 -0.1492 -0.3002 -0.0391
  835PW       W 7439   5.056   3.664  11.416 -0.0071 -0.5143 -0.1907
  835PW      WP 7440   4.942   3.588  11.444 -0.1778 -0.0948  0.3606
  835PW      WM 7441   5.139   3.633  11.525  0.4341  0.2485 -0.2713
  836PW       W 7442   6.940   8.681   9.331  0.0076 -0.0850 -0.0496
  836PW      WP 7443   6.862   8.769   9.254  0.2176  0.0934 -0.0656
  836PW      WM 7444   6.896   8.653   9.461 -0.2273 -0.7442 -0.2507
  837PW       W 7445   8.333   6.421  12.891  0.5051 -0.1428 -0.0661
  837PW      WP 7446   8.334   6.460  12.757  0.0735  0.5428  0.1039
  837PW      WM 7447   8.291   6.465  13.017 -0.1405 -0.6588 -0.0724
  838PW       W 7448   8.299   7.566  11.528 -0.0366  0.1409  0.4731
  838PW      WP 7449   8.403   7.574  11.435 -0.3431 -0.3305  0.0634
  838PW      WM 7450   8.225   7.448  11.544  0.0253  0.1112  0.5415
  839PW       W 7451   6.915   8.847  12.703  0.2618  0.0868 -0.0245
  839PW      WP 7452   6.809   8.865  12.793  0.4003  0.1112  0.1344
  839PW      WM 7453   6.994   8.962  12.708 -0.0687  0.3100  0.6945
  840PW       W 7454   2.949  11.042  11.653 -0.0367  0.0553 -0.5117
  840PW      WP 7455   2.819  11.079  11.690 -0.0514 -0.4160 -0.0384
  840PW      WM 7456   2.890  10.916  11.667 -0.0969  0.1184 -0.1455
  841PW       W 7457   4.086  11.402   2.221  0.1347 -0.1709  0.1515
  841PW      WP 7458   4.129  11.312   2.320  0.4205  0.4233  0.6012
  841PW      WM 7459   4.180  11.487   2.281  0.0728 -0.2130  0.3111
  842PW       W 7460   0.047   1.189   1.611  0.0948 -0.0071 -0.0731
  842PW      WP 7461   0.025   1.061   1.557  0.3238 -0.0117 -0.1593
  842PW      WM 7462   0.135   1.151   1.712  0.2222 -0.2393 -0.2641
  843PW       W 7463   6.841   7.136   9.461 -0.1988 -0.0952 -0.3955
  843PW      WP 7464   6.837   7.275   9.476 -0.1379 -0.1610  0.5479
  843PW      WM 7465   6.703   7.116   9.453 -0.2076  0.0824 -0.7796
  844PW       W 7466   0.941   2.024   4.984 -0.2818 -0.1234  0.0366
  844PW      WP 7467   0.875   2.129   5.048  0.0801  0.1517 -0.0261
  844PW      WM 7468   0.932   2.023   4.844  0.1771 -0.1733  0.0006
  845PW       W 7469   1.392   8.100  11.459 -0.2366 -0.1507  0.1121
  845PW      WP 7470   1.415   8.051  11.330 -0.2591 -0.0646  0.0758
  845PW      WM 7471   1.425   8.234  11.477 -0.5566 -0.1056  0.4418
  846PW       W 7472  10.460   1.757   1.375 -0.5428  0.0242  0.1246
  846PW      WP 7473  10.373   1.836   1.298 -0.3281 -0.1514 -0.3152
  846PW      WM 7474  10.562   1.665   1.403 -0.3512  0.3310  0.4779
  847PW       W 7475   7.084   0.258  12.329 -0.0971  0.3845  0.0254
  847PW      WP 7476   7.222   0.234  12.315 -0.1436  0.1091  0.0041
  847PW      WM 7477   7.111   0.374  12.256  0.3294  0.2140 -0.1044
  848PW       W 7478   2.937   9.949   1.796 -0.5665  0.0391  0.2207
  848PW      WP 7479   3.010   9.865   1.711 -0.4610  0.0946  0.2548
  848PW      WM 7480   2.804   9.913   1.775 -0.4160 -0.2372 -0.3623
  849PW       W 7481   5.556   9.560   1.964  0.1897 -0.4137 -0.0954
  849PW      WP 7482   5.505   9.433   1.996  0.3653 -0.4630 -0.0021
  849PW      WM 7483   5.686   9.591   2.006  0.3636  0.0053 -0.8549
  850PW       W 7484   6.499  11.873   8.124  0.0622  0.1672  0.3117
  850PW      WP 7485   6.408  11.840   8.225 -0.0591  0.2364  0.2265
  850PW      WM 7486   6.604  11.798   8.179  0.1015  0.2147  0.3012
  851PW       W 7487   7.877   3.138   2.526 -0.2993 -0.2357 -0.2455
  851PW      WP 7488   7.951   3.144   2.408  0.2758 -0.0884  0.1045
  851PW      WM 7489   7.810   3.249   2.474 -0.1770 -0.3600 -0.6887
  852PW       W 7490  11.609   0.855   4.386 -0.5695  0.2081 -0.0539
  852PW      WP 7491  11.686   0.884   4.272 -0.4381 -0.1472 -0.0610
  852PW      WM 7492  11.708   0.819   4.477 -0.2078  0.0852 -0.4772
  853PW       W 7493   1.598  10.995   3.645  0.3257 -0.2047 -0.3141
  853PW      WP 7494   1.738  10.998   3.642  0.3227  0.1907 -0.2593
  853PW      WM 7495   1.616  10.963   3.780  0.2292 -0.1033 -0.2764
  854PW       W 7496  10.735  11.460   4.082  0.0911 -0.2028 -0.0354
  854PW      WP 7497  10.695  11.570   4.006  0.1875 -0.3412 -0.2914
  854PW      WM 7498  10.852  11.386   4.101  0.0319 -0.2983 -0.0359
  855PW       W 7499  10.714  10.389   0.261 -0.1852  0.0076 -0.0229
  855PW      WP 7500  10.696  10.480   0.366 -0.0998 -0.1487  0.1303
  855PW      WM 7501  10.756  10.352   0.133 -0.5498 -0.5414 -0.0011
  856PW       W 7502   3.115   6.296   4.055 -0.1269 -0.5089  0.3526
  856PW      WP 7503   3.222   6.213   4.087  0.3040 -0.2487 -0.2977
  856PW      WM 7504   3.190   6.322   3.939 -0.4404  0.5183  0.3287
  857PW       W 7505   9.264   1.414   0.741 -0.0229  0.0752 -0.0759
  857PW      WP 7506   9.194   1.447   0.858  0.2661  0.2202  0.0612
  857PW      WM 7507   9.167   1.314   0.731 -0.0045  0.0865 -0.4556
  858PW       W 7508   2.709   4.544   8.742  0.1974  0.6241  0.4451
  858PW      WP 7509   2.605   4.633   8.715 -0.2898 -0.1391 -0.5087
  858PW      WM 7510   2.593   4.515   8.816  0.2480  0.1235  0.3469
  859PW       W 7511   0.184   3.364   2.831 -0.1559 -0.0381  0.1028
  859PW      WP 7512   0.124   3.490   2.819 -0.0406  0.0093  0.0254
  859PW      WM 7513   0.103   3.255   2.867  0.0732 -0.3852 -0.3777
  860PW       W 7514   2.647   9.458  10.673  0.1604 -0.6851  0.2105
  860PW      WP 7515   2.546   9.393  10.602 -0.2908 -0.1589  0.3351
  860PW      WM 7516   2.680   9.385  10.558  0.3048 -0.1496 -0.1058
  861PW       W 7517   7.917   6.305   0.590  0.5524 -0.0732 -0.3209
  861PW      WP 7518   7.963   6.434   0.619 -0.3470  0.2044  0.0406
  861PW      WM 7519   7.990   6.207   0.660 -0.2820 -0.5637 -0.0611
  862PW       W 7520   5.355   4.091  10.477 -0.1519  0.3066  0.1206
  862PW      WP 7521   5.374   4.071  10.339  0.2374  0.1169  0.1939
  862PW      WM 7522   5.270   3.984  10.446 -0.3416  0.5776 -0.3483
  863PW       W 7523  11.263   8.669   0.052 -0.4324  0.0640 -0.2022
  863PW      WP 7524  11.171   8.656   0.157 -0.0569  0.1123  0.1442
  863PW      WM 7525  11.361   8.647   0.150 -0.4291 -0.5202 -0.3183
  864PW       W 7526   3.262   7.533   0.814  0.1405  0.3258  0.3294
  864PW      WP 7527   3.392   7.580   0.790  0.2104 -0.0675 -0.1642
  864PW      WM 7528   3.280   7.399   0.777 -0.1287  0.3907 -0.0741
  865PW       W 7529   5.730  10.177   4.791 -0.4357 -0.1533  0.2164
  865PW      WP 7530   5.712  10.231   4.919  0.2467  0.1600  0.2046
  865PW      WM 7531   5.612  10.213   4.726  0.0255 -0.0444 -0.6301
  866PW       W 7532   1.257   7.977   9.117  0.1989 -0.0467  0.1532
  866PW      WP 7533   1.260   7.856   9.047  0.0610  0.1867 -0.2764
  866PW      WM 7534   1.257   8.084   9.207  0.1452 -0.3652  0.5434
  867PW       W 7535   0.662   8.111  13.156 -0.0077  0.0655  0.1530
  867PW      WP 7536   0.631   8.170  13.032 -0.4555  0.0058  0.2270
  867PW      WM 7537   0.589   8.006  13.100 -0.0529  0.1621  0.0279
  868PW       W 7538   6.966   4.430   0.986  0.0902 -0.1566 -0.0078
  868PW      WP 7539   6.955   4.361   1.108  0.1123  0.0798  0.1315
  868PW      WM 7540   7.041   4.500   1.082 -0.0251 -0.2827  0.1756
  869PW       W 7541   9.359  10.972   8.436 -0.0907 -0.4631  0.2744
  869PW      WP 7542   9.245  10.958   8.516 -0.2497  0.2123  0.1960
  869PW      WM 7543   9.344  11.051   8.551  0.1127  0.4553 -0.2805
  870PW       W 7544   9.752   3.635   1.428  0.2738 -0.4913  0.0592
  870PW      WP 7545   9.647   3.698   1.359  0.1847 -0.3984  0.2750
  870PW      WM 7546   9.799   3.505   1.402  0.6429 -0.2135 -0.8788
  871PW       W 7547   6.419   3.095  10.353  0.3323 -0.2514  0.5248
  871PW      WP 7548   6.300   3.032  10.393  0.0823  0.0251  0.2451
  871PW      WM 7549   6.517   3.021  10.287  0.0285  0.1505 -0.4696
  872PW       W 7550   0.293   3.410   0.880  0.1497  0.3775  0.4275
  872PW      WP 7551   0.367   3.316   0.806 -0.2421  0.5574 -0.2344
  872PW      WM 7552   0.214   3.414   0.996 -0.5210  0.3244 -0.0015
  873PW       W 7553   4.113   0.405   2.304  0.2722 -0.0777 -0.1100
  873PW      WP 7554   4.041   0.379   2.421  0.3473 -0.0256 -0.0513
  873PW      WM 7555   4.160   0.473   2.191  0.1486  0.1888 -0.0051
  874PW       W 7556   3.199   9.593   3.914 -0.3619 -0.0675 -0.0506
  874PW      WP 7557   3.099   9.579   3.817 -0.5039 -0.1635  0.1063
  874PW      WM 7558   3.223   9.724   3.958 -0.2056 -0.2573  0.4658
  875PW       W 7559   2.055   6.771   4.914 -0.0714  0.3168 -0.1430
  875PW      WP 7560   2.008   6.648   4.962 -0.2351  0.4658  0.0880
  875PW      WM 7561   2.129   6.882   4.958  0.1875  0.0270  0.1855
  876PW       W 7562   0.390   2.685  10.250 -0.1386  0.1353  0.4293
  876PW      WP 7563   0.314   2.604  10.335 -0.1101 -0.1668  0.1793
  876PW      WM 7564   0.398   2.818  10.294 -0.2293  0.3546 -0.1623
  877PW       W 7565  10.765   8.517   0.056 -0.1764 -0.2143  0.0600
  877PW      WP 7566  10.645   8.541   0.123  0.0513  0.5108  0.2580
  877PW      WM 7567  10.836   8.517   0.177  0.0187 -1.0301 -0.0249
  878PW       W 7568   8.434   9.610   7.942 -0.3048 -0.1074  0.1912
  878PW      WP 7569   8.384   9.527   8.042  0.0692 -0.4751  0.0854
  878PW      WM 7570   8.453   9.741   7.987 -0.0612 -0.0769  0.0086
  879PW       W 7571   2.069  11.000   9.211 -0.3591  0.3235 -0.1746
  879PW      WP 7572   2.065  10.964   9.076  0.2071  0.0304 -0.1258
  879PW      WM 7573   1.968  10.906   9.233  0.1339 -0.1533  0.1596
  880PW       W 7574   0.926   0.846   3.956 -0.1488 -0.2310  0.2071
  880PW      WP 7575   0.835   0.814   4.058  0.0280 -0.1944  0.3779
  880PW      WM 7576   0.970   0.903   4.076  0.3307  0.1061 -0.1113
  881PW       W 7577   8.290   9.923  12.151 -0.4848  0.2538  0.7113
  881PW      WP 7578   8.368  10.039  12.163 -0.2107  0.2575 -0.4569
  881PW      WM 7579   8.389   9.911  12.249  0.6490  0.3215 -0.3092
  882PW       W 7580   2.418   8.907   2.371  0.1644 -0.0562  0.4268
  882PW      WP 7581   2.555   8.910   2.402  0.1829  0.1928  0.3316
  882PW      WM 7582   2.367   8.795   2.437  0.0088  0.0033  0.4095
  883PW       W 7583   1.150   4.964  12.752  0.1403 -0.0655 -0.0807
  883PW      WP 7584   1.197   5.034  12.865 -0.2310 -0.0428  0.0677
  883PW      WM 7585   1.161   5.052  12.644 -0.0147  0.2733  0.1680
  884PW       W 7586   8.724   1.155  12.353  0.0361 -0.3664 -0.0419
  884PW      WP 7587   8.742   1.229  12.235  0.5067  0.0568  0.2760
  884PW      WM 7588   8.744   1.043  12.272  0.4385 -0.1261 -0.2967
  885PW       W 7589  11.917   9.274   0.978  0.3013 -0.4231  0.1612
  885PW      WP 7590  11.811   9.335   1.046  0.4789  0.3842 -0.2103
  885PW      WM 7591  11.962   9.363   0.879  0.0242 -0.2264  0.2068
  886PW       W 7592   1.468   8.391   9.155  0.0861  0.2190  0.2621
  886PW      WP 7593   1.419   8.262   9.134 -0.1118  0.2491  0.5263
  886PW      WM 7594   1.427   8.419   9.024 -0.5917  0.2169  0.4571
  887PW       W 7595   1.134   6.057   2.379 -0.0850  0.1877  0.5033
  887PW      WP 7596   1.199   6.026   2.259 -0.2525  0.4994  0.3271
  887PW      WM 7597   1.254   6.120   2.415  0.0137  0.0587  0.4043
  888PW       W 7598   2.360   3.951   0.855  0.0211 -0.0345 -0.3762
  888PW      WP 7599   2.468   4.036   0.823  0.1929  0.0597  0.3711
  888PW      WM 7600   2.233   3.898   0.834 -0.0968  0.3278 -0.6419
  889PW       W 7601   8.027   8.749   9.977 -0.1562 -0.3809  0.5935
  889PW      WP 7602   7.936   8.848   9.937 -0.0296 -0.3508  0.3689
  889PW      WM 7603   8.166   8.766   9.989 -0.0832 -0.2825 -0.1377
  890PW       W 7604  11.624   1.301  11.624 -0.2147  0.0740 -0.0346
  890PW      WP 7605  11.553   1.413  11.580 -0.4908 -0.1884 -0.2783
  890PW      WM 7606  11.737   1.276  11.545 -0.1305 -0.0068  0.1085
  891PW       W 7607   5.865   9.112   3.655 -0.1399  0.1497  0.1955
  891PW      WP 7608   5.765   9.107   3.558 -0.0769 -0.0273  0.1384
  891PW      WM 7609   5.910   9.000   3.584 -0.0238  0.0662  0.3972
  892PW       W 7610   8.546   1.492  11.805  0.0398  0.1237  0.4091
  892PW      WP 7611   8.685   1.479  11.800 -0.0188 -0.6455  0.0096
  892PW      WM 7612   8.409   1.509  11.829  0.0423  0.0794  0.4558
  893PW       W 7613   1.120   5.356  12.405 -0.2602  0.4556  0.3766
  893PW      WP 7614   1.101   5.494  12.412 -0.0266  0.5007  0.1969
  893PW      WM 7615   1.015   5.304  12.328  0.1424 -0.7244  0.5200
  894PW       W 7616   0.718   6.223  12.627 -0.3259  0.4039  0.0746
  894PW      WP 7617   0.735   6.206  12.765  0.2639 -0.5501 -0.0698
  894PW      WM 7618   0.712   6.317  12.524 -0.3460  0.0229 -0.2818
  895PW       W 7619   5.840   6.000  12.512 -0.1019  0.0031  0.0440
  895PW      WP 7620   5.788   5.927  12.404 -0.2673 -0.1960  0.2516
  895PW      WM 7621   5.928   6.024  12.405 -0.1891  0.4679  0.0665
  896PW       W 7622   2.251   9.738   1.195  0.0356  0.2412  0.1142
  896PW      WP 7623   2.376   9.676   1.182 -0.2866 -0.4372  0.0135
  896PW      WM 7624   2.294   9.664   1.084  0.2804 -0.5686  0.6999
  897PW       W 7625   0.595   2.424  11.938  0.0837  0.1098 -0.2057
  897PW      WP 7626   0.625   2.476  11.812  0.3157  0.0932 -0.1588
  897PW      WM 7627   0.642   2.531  12.014 -0.2214  0.1158 -0.0178
  898PW       W 7628  11.434   2.204   9.139 -0.0224 -0.0546  0.0042
  898PW      WP 7629  11.475   2.335   9.111 -0.0624 -0.1238 -0.4134
  898PW      WM 7630  11.334   2.185   9.234 -0.3391  0.2130 -0.2649
  899PW       W 7631   9.795  10.326   4.410  0.2118 -0.0307  0.1542
  899PW      WP 7632   9.721  10.282   4.520  0.3215 -0.6768 -0.0125
  899PW      WM 7633   9.857  10.389   4.518  0.0109  0.0031  0.2526
  900PW       W 7634   1.325  11.101   8.974  0.0761 -0.2141  0.2092
  900PW      WP 7635   1.186  11.088   8.957  0.0302  0.2338  0.1882
  900PW      WM 7636   1.366  11.090   8.841  0.2634  0.3297  0.2118
  901PW       W 7637  11.145   3.360  11.879  0.2851 -0.0533 -0.2227
  901PW      WP 7638  11.114   3.249  11.958 -0.4862  0.2504 -0.0592
  901PW      WM 7639  11.231   3.311  11.780 -0.0707 -0.2940 -0.4251
  902PW       W 7640   6.006  10.776  11.742  0.2848 -0.1494  0.3239
  902PW      WP 7641   5.987  10.654  11.675 -0.1473  0.3477 -0.5564
  902PW      WM 7642   6.004  10.913  11.713  0.3153 -0.1255  0.4336
  903PW       W 7643   0.796   8.211   3.824  0.0970  0.5313 -0.4600
  903PW      WP 7644   0.930   8.205   3.784  0.3998 -0.7667  0.4427
  903PW      WM 7645   0.884   8.171   3.925 -0.2694  0.6902 -0.0637
  904PW       W 7646   2.034   5.494   3.697  0.3484  0.5178  0.1014
  904PW      WP 7647   1.910   5.473   3.635  0.1605 -0.0011  0.6121
  904PW      WM 7648   2.102   5.413   3.605  0.1617  0.1213  0.3007
  905PW       W 7649   3.355   1.615   9.152  0.2311  0.1915 -0.2551
  905PW      WP 7650   3.393   1.565   9.276  0.5121  0.5735 -0.1793
  905PW      WM 7651   3.426   1.719   9.212  0.1499  0.0857  0.0337
  906PW       W 7652   0.075   7.727   1.086  0.2617 -0.1993 -0.0888
  906PW      WP 7653   0.123   7.858   1.094 -0.3659  0.0216  0.6191
  906PW      WM 7654  -0.045   7.705   1.155  0.1452  0.4343 -0.0676
  907PW       W 7655   2.059   7.572   9.067 -0.0184 -0.3103 -0.1430
  907PW      WP 7656   1.949   7.659   9.054  0.4355  0.2471 -0.5046
  907PW      WM 7657   2.125   7.677   9.003 -0.2301  0.0621  0.2257
  908PW       W 7658  11.753  11.267  11.958 -0.1484 -0.0419  0.6437
  908PW      WP 7659  11.780  11.143  12.018  0.1559 -0.2503  0.1199
  908PW      WM 7660  11.709  11.399  11.963  0.0748  0.0957 -0.2097
  909PW       W 7661   3.146   2.163   1.073 -0.6718 -0.4339  0.4961
  909PW      WP 7662   3.083   2.287   1.094  0.2970  0.1237  0.4134
  909PW      WM 7663   3.232   2.060   1.111 -0.3610 -0.3608  0.0435
  910PW       W 7664   2.379  11.204   3.060  0.0299 -0.0148 -0.0638
  910PW      WP 7665   2.341  11.086   2.994  0.4403 -0.0301 -0.2883
  910PW      WM 7666   2.434  11.324   3.012  0.0052 -0.1514 -0.4583
  911PW       W 7667   6.275   8.001   8.936  0.3686 -0.1181 -0.5672
  911PW      WP 7668   6.398   8.057   8.972  0.2002  0.0289 -0.1987
  911PW      WM 7669   6.267   8.068   8.813 -0.4391 -0.0793 -0.5210
  912PW       W 7670   8.029   6.507   5.046 -0.2316 -0.5550  0.0770
  912PW      WP 7671   7.943   6.407   4.999 -0.3227 -0.3796 -0.1422
  912PW      WM 7672   8.125   6.497   4.945 -0.2304 -0.5473  0.0777
  913PW       W 7673   4.574   5.309   1.670 -0.1723  0.1408 -0.1761
  913PW      WP 7674   4.672   5.222   1.621 -0.1208  0.3362 -0.4306
  913PW      WM 7675   4.597   5.343   1.804 -0.1874 -0.2336 -0.0739
  914PW       W 7676  10.278   4.118   3.455 -0.1620 -0.3926 -0.3069
  914PW      WP 7677  10.383   4.092   3.366 -0.1389  0.0925 -0.4386
  914PW      WM 7678  10.268   4.069   3.586 -0.3014  0.0966 -0.1213
  915PW       W 7679   5.510   7.448  11.919 -0.1753 -0.1596  0.0467
  915PW      WP 7680   5.454   7.493  11.799  0.0585  0.1261  0.0423
  915PW      WM 7681   5.591   7.334  11.925 -0.0088 -0.0494 -0.0804
  916PW       W 7682   1.822   1.985  11.128 -0.0119  0.5483 -0.3346
  916PW      WP 7683   1.765   1.940  11.008  0.2267  0.2465 -0.3396
  916PW      WM 7684   1.810   1.859  11.189 -0.3048  0.5016 -0.4780
  917PW       W 7685   9.190   3.409   4.061  0.2287 -0.1614 -0.3204
  917PW      WP 7686   9.101   3.501   4.005 -0.0578 -0.2742 -0.0627
  917PW      WM 7687   9.311   3.459   4.112 -0.0873  0.0355  0.2833
  918PW       W 7688   1.868   9.400   1.171  0.0228  0.2412  0.2673
  918PW      WP 7689   1.949   9.363   1.279  0.0281  0.0880  0.2124
  918PW      WM 7690   1.732   9.403   1.139 -0.0116 -0.3446  0.3027
  919PW       W 7691   8.471   7.382   9.920  0.0034  0.3790 -0.2419
  919PW      WP 7692   8.584   7.465   9.917  0.1848  0.2037  0.5463
  919PW      WM 7693   8.504   7.298  10.027  0.0407  0.3810 -0.2524
  920PW       W 7694  11.864   1.684   5.517  0.2719 -0.2395  0.0506
  920PW      WP 7695  11.964   1.781   5.498  0.1251  0.0030  0.4659
  920PW      WM 7696  11.855   1.715   5.381 -0.2159 -0.7368 -0.0485
  921PW       W 7697   7.901   6.971  12.401 -0.0449 -0.0707 -0.1678
  921PW      WP 7698   7.764   6.985  12.429 -0.0686 -0.4832 -0.0338
  921PW      WM 7699   7.964   6.859  12.457  0.2363 -0.0025 -0.3400
  922PW       W 7700   1.497   4.000  11.602 -0.4612 -0.0808 -0.1049
  922PW      WP 7701   1.517   4.048  11.732  0.2103 -0.2836 -0.1170
  922PW      WM 7702   1.489   3.877  11.534  0.1842 -0.1724 -0.0465
  923PW       W 7703  11.350   8.051   3.195 -0.2220 -0.3911  0.0156
  923PW      WP 7704  11.421   7.949   3.130 -0.1314 -0.5434  0.3419
  923PW      WM 7705  11.378   7.915   3.213 -0.3407 -0.4229 -0.0342
  924PW       W 7706   4.777  10.998   0.860  0.0976  0.3780  0.3221
  924PW      WP 7707   4.849  11.050   0.752 -0.3928 -0.2593 -0.3605
  924PW      WM 7708   4.842  10.881   0.902  0.1426  0.2143 -0.1743
  925PW       W 7709  11.513   1.706   8.637  0.1497  0.2790  0.3617
  925PW      WP 7710  11.504   1.756   8.507  0.0606 -0.0949  0.2171
  925PW      WM 7711  11.497   1.585   8.706 -0.0390  0.2808  0.3258
  926PW       W 7712  11.808   7.589  12.460 -0.1895  0.2897 -0.6582
  926PW      WP 7713  11.918   7.635  12.387  0.2512  0.1889 -0.0970
  926PW      WM 7714  11.913   7.504  12.423 -0.2648 -0.0301 -0.1751
  927PW       W 7715   0.232   8.641  12.577 -0.0121  0.1677  0.4341
  927PW      WP 7716   0.342   8.685  12.651  0.0995  0.2127  0.2430
  927PW      WM 7717   0.271   8.563  12.467  0.4602  0.3951  0.4318
  928PW       W 7718   2.211   1.806   2.754 -0.2946  0.0283 -0.6252
  928PW      WP 7719   2.133   1.813   2.870 -0.2993 -0.1216 -0.6193
  928PW      WM 7720   2.209   1.682   2.691 -0.4362 -0.5434  0.3958
  929PW       W 7721   5.135  10.519   8.756 -0.0844 -0.1025 -0.0420
  929PW      WP 7722   5.119  10.450   8.635 -0.5801  0.1808 -0.1491
  929PW      WM 7723   5.255  10.455   8.789  0.2881  0.4515 -0.2696
  930PW       W 7724   3.752   7.021  13.283 -0.3295  0.1270  0.1200
  930PW      WP 7725   3.785   7.072  13.409 -0.2101 -0.3751  0.3063
  930PW      WM 7726   3.715   6.886  13.272 -0.3042  0.0881  0.4435
  931PW       W 7727   3.923   1.806   2.599  0.2004 -0.5919  0.0562
  931PW      WP 7728   3.987   1.692   2.549 -0.0492 -0.6130 -0.2342
  931PW      WM 7729   3.981   1.899   2.686 -0.2114  0.0681 -0.3328
  932PW       W 7730   3.454   3.018   2.298  0.3844 -0.1976 -0.1317
  932PW      WP 7731   3.468   3.155   2.321  0.0539 -0.2046  0.1578
  932PW      WM 7732   3.363   2.983   2.197 -0.2398 -0.4951  0.4894
  933PW       W 7733   2.767  12.069  12.883 -0.0175  0.2782  0.2185
  933PW      WP 7734   2.628  12.062  12.900 -0.0777  0.1622 -0.2582
  933PW      WM 7735   2.802  12.080  13.018  0.2359 -0.1512  0.1953
  934PW       W 7736   2.419   6.097   2.429  0.1330  0.1836 -0.0993
  934PW      WP 7737   2.322   5.997   2.433  0.0784  0.2437  0.2088
  934PW      WM 7738   2.467   5.979   2.488 -0.2939 -0.0609 -0.2243
  935PW       W 7739   4.419   7.205  10.406  0.2603 -0.3206 -0.0183
  935PW      WP 7740   4.382   7.074  10.371  0.1335 -0.4172  0.4499
  935PW      WM 7741   4.348   7.256  10.296 -0.1424 -0.0461  0.3552
  936PW       W 7742   6.021  11.653  10.183  0.1009  0.3801 -0.0624
  936PW      WP 7743   6.018  11.786  10.225 -0.0799  0.4920 -0.4071
  936PW      WM 7744   6.116  11.696  10.090 -0.2991  0.2167 -0.5704
  937PW       W 7745   2.814   7.515   2.985  0.2597 -0.2743 -0.0927
  937PW      WP 7746   2.780   7.385   2.943  0.1718 -0.2201 -0.1905
  937PW      WM 7747   2.900   7.625   2.990  0.0928 -0.1484  0.0959
  938PW       W 7748   1.545   6.850  10.277  0.1151  0.0395 -0.1072
  938PW      WP 7749   1.590   6.959  10.202  0.6161  0.0015  0.1151
  938PW      WM 7750   1.497   6.782  10.164 -0.4244 -0.3897  0.3498
  939PW       W 7751  10.444  12.074   0.237 -0.0087  0.0578  0.1929
  939PW      WP 7752  10.306  12.060   0.219  0.1145 -0.6218 -0.4903
  939PW      WM 7753  10.505  12.167   0.151 -0.3267 -0.0239 -0.1348
  940PW       W 7754   9.033   2.898   3.484  0.3262 -0.3164  0.3621
  940PW      WP 7755   9.001   2.762   3.467  0.2288 -0.2943  0.3672
  940PW      WM 7756   9.008   3.008   3.566  0.0001 -0.2691  0.2054
  941PW       W 7757   8.365  10.359   1.810 -0.0665 -0.5720  0.0025
  941PW      WP 7758   8.327  10.382   1.678 -0.4688  0.1692  0.2202
  941PW      WM 7759   8.375  10.405   1.942  0.1514 -0.6073 -0.0004
  942PW       W 7760   2.458   1.979   8.332 -0.2237  0.5750 -0.4274
  942PW      WP 7761   2.518   2.086   8.401  0.3312 -0.0538  0.1507
  942PW      WM 7762   2.456   1.980   8.472  0.9257 -0.1401 -0.3422
  943PW       W 7763   8.399   3.545  11.664 -0.3708 -0.1457  0.2848
  943PW      WP 7764   8.510   3.544  11.749  0.0683  0.3210 -0.2414
  943PW      WM 7765   8.459   3.421  11.689 -0.1693 -0.1770 -0.2887
  944PW       W 7766   1.325   1.143   0.295 -0.2191  0.4154  0.5863
  944PW      WP 7767   1.411   1.230   0.228  0.3605 -0.6440 -0.2082
  944PW      WM 7768   1.454   1.106   0.257 -0.5268  0.1376 -0.3499
  945PW       W 7769   3.398   2.197   0.152  0.2810  0.1814 -0.1788
  945PW      WP 7770   3.538   2.196   0.146  0.2846 -0.2968 -0.1907
  945PW      WM 7771   3.317   2.299   0.202  0.2826 -0.1648  0.5965
  946PW       W 7772   7.697   1.435   1.304 -0.3589 -0.0893 -0.2128
  946PW      WP 7773   7.691   1.571   1.273 -0.3614 -0.0244  0.0629
  946PW      WM 7774   7.665   1.434   1.168 -0.5531 -0.2586 -0.1681
  947PW       W 7775   3.427   7.313   9.690 -0.0906 -0.5039  0.0062
  947PW      WP 7776   3.519   7.278   9.590 -0.0550 -0.3249 -0.0237
  947PW      WM 7777   3.462   7.208   9.777 -0.0608 -0.4245  0.0904
  948PW       W 7778  11.003   6.229   1.635 -0.3081  0.0450 -0.1713
  948PW      WP 7779  11.063   6.356   1.640  0.2061 -0.1851 -0.2259
  948PW      WM 7780  10.876   6.194   1.682 -0.2432 -0.4372 -0.3296
  949PW       W 7781   5.647   6.220   0.158 -0.3443  0.5385 -0.2351
  949PW      WP 7782   5.540   6.134   0.128  0.0287 -0.0829  0.1054
  949PW      WM 7783   5.711   6.205   0.034 -0.3039  0.2011 -0.1789
  950PW       W 7784   5.347   2.582   5.642  0.2694 -0.2648  0.3145
  950PW      WP 7785   5.472   2.615   5.588  0.1625 -0.0897  0.1703
  950PW      WM 7786   5.268   2.508   5.554  0.0893 -0.0265  0.2707
  951PW       W 7787   2.827   3.228   8.348 -0.0964  0.4534 -0.4466
  951PW      WP 7788   2.688   3.216   8.351 -0.0425 -0.6074 -0.1712
  951PW      WM 7789   2.955   3.171   8.356 -0.0881  0.4946 -0.2645
  952PW       W 7790   5.241   3.729  12.591 -0.1757 -0.1507 -0.6478
  952PW      WP 7791   5.138   3.646  12.636  0.1737 -0.1614  0.2285
  952PW      WM 7792   5.270   3.594  12.616 -0.1692 -0.0852 -0.2807
  953PW       W 7793   0.670   5.870   4.094  0.1697  0.3175  0.1500
  953PW      WP 7794   0.765   5.968   4.065  0.1878  0.3262  0.2355
  953PW      WM 7795   0.583   5.818   4.192  0.3474  0.1611  0.2265
  954PW       W 7796  11.983   0.369  13.202 -0.0353 -0.0060  0.0651
  954PW      WP 7797  12.092   0.324  13.277 -0.2305 -0.0499  0.3278
  954PW      WM 7798  12.065   0.380  13.089 -0.3679  0.3124 -0.1559
  955PW       W 7799   8.499   6.295   9.192  0.1407 -0.2456  0.3860
  955PW      WP 7800   8.619   6.222   9.200  0.0964 -0.3422  0.1931
  955PW      WM 7801   8.609   6.344   9.120 -0.1833 -0.1187 -0.0360
  956PW       W 7802   6.290   9.952   4.696  0.0529 -0.4107  0.0346
  956PW      WP 7803   6.348  10.014   4.585 -0.4026 -0.2007 -0.1011
  956PW      WM 7804   6.231   9.825   4.702 -0.2974 -0.2607 -0.0933
  957PW       W 7805   1.018   7.023   1.897  0.2359  0.4086 -0.0237
  957PW      WP 7806   0.943   7.012   2.014  0.8451  0.1374  0.3695
  957PW      WM 7807   0.997   7.067   1.765 -0.1381  0.2136 -0.0343
  958PW       W 7808   7.464   7.202   5.619  0.0400  0.3533  0.2382
  958PW      WP 7809   7.502   7.110   5.520  0.1449  0.2922  0.3341
  958PW      WM 7810   7.581   7.201   5.696  0.0621 -0.0084  0.2109
  959PW       W 7811   3.503   6.648   4.036  0.2102  0.2144  0.2547
  959PW      WP 7812   3.524   6.759   3.954  0.2333  0.0801  0.0738
  959PW      WM 7813   3.586   6.548   3.983 -0.2704 -0.0017 -0.1266
  960PW       W 7814  11.192   6.784   9.639 -0.4809 -0.0447  0.0077
  960PW      WP 7815  11.139   6.829   9.517  0.0875  0.3294 -0.1246
  960PW      WM 7816  11.102   6.755   9.742 -0.6169 -0.0163 -0.1015
  961PW       W 7817   9.454   8.802   9.707 -0.3448 -0.3068 -0.0058
  961PW      WP 7818   9.332   8.852   9.661 -0.1938  0.3462  0.2398
  961PW      WM 7819   9.573   8.782   9.635 -0.3085 -0.2397  0.0354
  962PW       W 7820  11.029   1.687  13.254  0.0982  0.0165  0.0906
  962PW      WP 7821  11.012   1.809  13.320 -0.1206 -0.0875  0.2332
  962PW      WM 7822  11.095   1.591  13.177 -0.1027  0.0159 -0.0834
  963PW       W 7823   5.777   7.626   4.403  0.0008  0.7349  0.6071
  963PW      WP 7824   5.674   7.586   4.489 -0.3371 -0.4838 -0.2302
  963PW      WM 7825   5.874   7.723   4.379  0.3825  0.2710  0.1407
  964PW       W 7826   1.467   8.993   1.013 -0.1856  0.1682 -0.8226
  964PW      WP 7827   1.522   9.122   1.017 -0.0182  0.0940 -0.2245
  964PW      WM 7828   1.355   9.066   1.056 -0.0111  0.2082 -0.4120
  965PW       W 7829   8.100  10.510   0.601 -0.1822 -0.4281 -0.1571
  965PW      WP 7830   8.224  10.541   0.660 -0.2782 -0.0243 -0.1494
  965PW      WM 7831   8.020  10.459   0.704  0.0532 -0.4523  0.0195
  966PW       W 7832   2.651   0.585  11.336 -0.0828 -0.2550 -0.0558
  966PW      WP 7833   2.754   0.491  11.339 -0.1297 -0.3066 -0.0546
  966PW      WM 7834   2.734   0.601  11.224 -0.1117  0.1698 -0.0261
  967PW       W 7835   3.523   9.624   4.458 -0.1975 -0.0579 -0.1618
  967PW      WP 7836   3.502   9.674   4.328  0.5342  0.5530 -0.0847
  967PW      WM 7837   3.526   9.625   4.598  0.5345 -0.5681 -0.1441
  968PW       W 7838   3.640   4.796   2.311 -0.1241  0.2898  0.0950
  968PW      WP 7839   3.617   4.756   2.179 -0.4655  0.0443  0.2208
  968PW      WM 7840   3.525   4.810   2.390 -0.1057  0.2358  0.1321
  969PW       W 7841   7.419   0.641   4.108  0.1511 -0.1288 -0.1434
  969PW      WP 7842   7.415   0.502   4.121  0.0930 -0.0998  0.1808
  969PW      WM 7843   7.463   0.629   3.976 -0.4711  0.4048 -0.4316
  970PW       W 7844   5.700   0.472   2.684 -0.2104  0.1142 -0.0855
  970PW      WP 7845   5.789   0.365   2.699 -0.2567  0.0985  0.0950
  970PW      WM 7846   5.735   0.607   2.677  0.6271 -0.0982 -0.7248
  971PW       W 7847  11.107  10.661   0.540 -0.0173  0.2022  0.3275
  971PW      WP 7848  10.972  10.625   0.535  0.0095  0.1323 -0.3920
  971PW      WM 7849  11.095  10.800   0.529  0.3568  0.2308  0.2083
  972PW       W 7850   4.518   2.639  11.118  0.4466  0.2715 -0.3740
  972PW      WP 7851   4.592   2.585  11.013  0.7263 -0.0468 -0.0285
  972PW      WM 7852   4.432   2.746  11.146  0.0221 -0.0556 -0.3686
  973PW       W 7853   9.637   1.687   4.326  0.1180  0.0789 -0.1852
  973PW      WP 7854   9.518   1.664   4.397 -0.1085  0.6501 -0.3577
  973PW      WM 7855   9.731   1.591   4.284  0.2670  0.1329  0.0174
  974PW       W 7856   3.019   1.396   0.396  0.0678 -0.3417 -0.0382
  974PW      WP 7857   3.116   1.446   0.308  0.1340 -0.4886 -0.0508
  974PW      WM 7858   2.893   1.370   0.451 -0.0354  0.3100  0.0682
  975PW       W 7859   4.583   6.277   1.819  0.1671  0.3064  0.0500
  975PW      WP 7860   4.463   6.342   1.850 -0.2837 -0.0308 -0.8106
  975PW      WM 7861   4.591   6.308   1.683  0.0174  0.0543 -0.0205
  976PW       W 7862   5.960   1.415   0.078  0.1617  0.2750 -0.0171
  976PW      WP 7863   6.003   1.513   0.168 -0.3170  0.2484  0.2615
  976PW      WM 7864   5.998   1.520  -0.006  0.1920 -0.0997 -0.5016
  977PW       W 7865   4.979   9.919  11.198 -0.5912 -0.0414 -0.1784
  977PW      WP 7866   4.905   9.848  11.103 -0.9440 -0.4093  0.3433
  977PW      WM 7867   5.039   9.955  11.319 -0.8549 -0.0183 -0.0524
  978PW       W 7868   6.305   5.944   2.228 -0.2603 -0.5463 -0.1898
  978PW      WP 7869   6.178   5.999   2.201  0.1780  0.6345 -0.1692
  978PW      WM 7870   6.388   5.942   2.116 -0.3021 -0.2010 -0.2326
  979PW       W 7871  10.832   6.469  12.408 -0.0568  0.1026 -0.4019
  979PW      WP 7872  10.705   6.509  12.450 -0.0526 -0.1417 -0.1395
  979PW      WM 7873  10.966   6.457  12.371  0.0614  0.0299  0.0234
  980PW       W 7874   6.834  10.772  11.677  0.2121 -0.2058  0.0987
  980PW      WP 7875   6.835  10.649  11.610  0.4214 -0.2009  0.0890
  980PW      WM 7876   6.901  10.649  11.689  0.0077 -0.3545 -0.2255
  981PW       W 7877   2.137  11.588   3.316  0.2234  0.2614  0.2523
  981PW      WP 7878   2.143  11.619   3.180  0.1235 -0.0871  0.1611
  981PW      WM 7879   2.117  11.656   3.437  0.0012  0.0867  0.3186
  982PW       W 7880   4.083   6.266  12.587 -0.2256 -0.3434 -0.0275
  982PW      WP 7881   4.181   6.247  12.685 -0.1353  0.4655  0.0711
  982PW      WM 7882   4.104   6.237  12.452 -0.2682 -0.2133 -0.0620
  983PW       W 7883   1.891   8.934  13.148 -0.1572  0.1011  0.3475
  983PW      WP 7884   1.917   9.058  13.208 -0.1107  0.3470 -0.1581
  983PW      WM 7885   1.786   8.900  13.062  0.5119  0.1640 -0.5611
  984PW       W 7886   8.993   6.641   0.866  0.1798  0.2704 -0.3085
  984PW      WP 7887   9.035   6.735   0.961  0.0833  0.0178 -0.0094
  984PW      WM 7888   9.115   6.582   0.902  0.2350  0.3178 -0.4129
  985PW       W 7889   3.959  11.490   1.147 -0.2727 -0.0402  0.4096
  985PW      WP 7890   4.007  11.615   1.107 -0.2131 -0.0593  0.4205
  985PW      WM 7891   3.828  11.530   1.174 -0.2541  0.4984 -0.2048
  986PW       W 7892   0.601  10.583   2.829  0.2239  0.1467  0.2353
  986PW      WP 7893   0.633  10.594   2.693 -0.5636  0.1001  0.0251
  986PW      WM 7894   0.613  10.523   2.954 -0.1617 -0.5314 -0.0284
  987PW       W 7895   3.927   0.319   3.763 -0.2253  0.1531  0.4442
  987PW      WP 7896   3.888   0.453   3.767 -0.4253  0.1125  0.0259
  987PW      WM 7897   3.945   0.233   3.873  0.0499  0.2667  0.4930
  988PW       W 7898  11.035   8.659  12.743  0.4443  0.0228 -0.0485
  988PW      WP 7899  10.982   8.706  12.622 -0.0720 -0.2687  0.0536
  988PW      WM 7900  10.943   8.574  12.805  0.8472 -0.1429  0.3539
  989PW       W 7901  10.562   4.389   4.046  0.1279 -0.0178 -0.0903
  989PW      WP 7902  10.682   4.410   3.978 -0.1808 -0.6812 -0.9391
  989PW      WM 7903  10.524   4.255   4.058  0.3167 -0.0692 -0.0478
  990PW       W 7904   1.808   8.818   4.153  0.1959 -0.2774  0.8196
  990PW      WP 7905   1.926   8.742   4.139 -0.1095 -0.6553 -0.2038
  990PW      WM 7906   1.889   8.874   4.053 -0.3930 -0.3887  0.2440
  991PW       W 7907  12.070   3.230  11.994 -0.4103  0.0126  0.0069
  991PW      WP 7908  11.946   3.252  12.057 -0.1822  0.3687  0.3597
  991PW      WM 7909  12.189   3.300  11.971 -0.4417  0.1843  0.3329
  992PW       W 7910   2.809   5.689   1.909  0.1024  0.1645  0.0817
  992PW      WP 7911   2.769   5.606   2.015 -0.0333  0.1240  0.0003
  992PW      WM 7912   2.947   5.710   1.894  0.0741  0.2323 -0.0951
  993PW       W 7913   0.632   1.757   1.228  0.6616 -0.2505  0.4903
  993PW      WP 7914   0.749   1.766   1.151  0.1474 -0.2639 -0.3618
  993PW      WM 7915   0.612   1.653   1.319 -0.2510 -0.2730  0.3118
  994PW       W 7916   7.972   8.439   8.015  0.0851 -0.0624 -0.2425
  994PW      WP 7917   7.853   8.496   7.968  0.2009  0.2829 -0.1344
  994PW      WM 7918   8.022   8.522   8.116 -0.0445  0.1956 -0.3833
  995PW       W 7919   1.138   5.254   9.147  0.1716 -0.4035  0.1137
  995PW      WP 7920   1.082   5.195   9.261 -0.5234 -0.4121 -0.2103
  995PW      WM 7921   1.223   5.155   9.096  0.4553  0.1319 -0.5292
  996PW       W 7922   6.815   9.597  11.757 -0.0150  0.1615  0.5279
  996PW      WP 7923   6.846   9.725  11.711 -0.3384  0.0614 -0.0140
  996PW      WM 7924   6.689   9.576  11.815 -0.3994  0.4428 -0.1538
  997PW       W 7925   3.340   5.193   1.407  0.1727  0.4681 -0.3336
  997PW      WP 7926   3.469   5.209   1.457  0.0380  0.0496  0.1860
  997PW      WM 7927   3.235   5.106   1.374  0.4250  0.2324 -0.5342
  998PW       W 7928   9.535  10.370   9.906  0.0595 -0.2358 -0.0486
  998PW      WP 7929   9.495  10.309  10.025  0.0828 -0.1332  0.0123
  998PW      WM 7930   9.655  10.311   9.864  0.1006 -0.0179 -0.2503
  999PW       W 7931   6.073   0.129   9.458 -0.2971 -0.1564  0.0898
  999PW      WP 7932   6.137   0.052   9.360  0.0551 -0.0578  0.2327
  999PW      WM 7933   5.945   0.112   9.404 -0.0110 -0.0077 -0.7025
 1000PW       W 7934  10.857   6.465   2.468 -0.4511 -0.1424  0.0724
 1000PW      WP 7935  10.784   6.469   2.349 -0.0601  0.1572 -0.1706
 1000PW      WM 7936  10.933   6.536   2.562  0.3938 -0.6198 -0.2004
 1001PW       W 7937   5.755   8.187   0.129  0.2639 -0.2113  0.2625
 1001PW      WP 7938   5.625   8.173   0.078  0.3121  0.1256  0.0243
 1001PW      WM 7939   5.735   8.067   0.198 -0.2502 -0.2466  0.0786
 1002PW       W 7940   7.442  11.222   4.299 -0.0593  0.2157  0.1304
 1002PW      WP 7941   7.561  11.150   4.293 -0.2680 -0.1207 -0.4223
 1002PW      WM 7942   7.309  11.235   4.341 -0.1442 -0.5601  0.1865
 1003PW       W 7943  11.625   7.090  12.739  0.1461 -0.1130  0.1091
 1003PW      WP 7944  11.627   7.008  12.853 -0.6555 -0.1666  0.1156
 1003PW      WM 7945  11.509   7.165  12.764  0.1353  0.0488 -0.3745
 1004PW       W 7946  11.722   4.715  10.618 -0.2042 -0.1242  0.1608
 1004PW      WP 7947  11.822   4.618  10.612 -0.1864 -0.0909 -0.1666
 1004PW      WM 7948  11.764   4.830  10.686  0.2086 -0.0444 -0.2097
 1005PW       W 7949   1.693   1.477   0.823  0.1775  0.1962 -0.2383
 1005PW      WP 7950   1.743   1.397   0.720  0.0236  0.4454 -0.5149
 1005PW      WM 7951   1.570   1.463   0.888  0.3008  0.2416  0.0101
 1006PW       W 7952   2.337   7.941  10.648  0.1960  0.0207  0.2821
 1006PW      WP 7953   2.410   8.053  10.606 -0.0347  0.1929  0.3271
 1006PW      WM 7954   2.293   7.864  10.539  0.2275  0.4397 -0.0392
 1007PW       W 7955   3.933   8.851  11.663  0.2714  0.2704 -0.1446
 1007PW      WP 7956   3.881   8.802  11.543 -0.0615 -0.2598  0.1954
 1007PW      WM 7957   3.979   8.761  11.760  0.0939  0.3373  0.0059
 1008PW       W 7958   5.270   4.016   0.101  0.0144 -0.1154  0.1726
 1008PW      WP 7959   5.212   3.912   0.027 -0.1103  0.1689 -0.1431
 1008PW      WM 7960   5.350   4.071   0.001 -0.2278  0.1456  0.1153
 1009PW       W 7961   3.984   4.351   4.868  0.0480  0.0978  0.2372
 1009PW      WP 7962   4.016   4.439   4.972 -0.2203  0.1590  0.2709
 1009PW      WM 7963   3.859   4.329   4.927 -0.1007 -0.0056 -0.1050
 1010PW       W 7964   2.274   3.966   3.117  0.0471  0.5273 -0.1699
 1010PW      WP 7965   2.168   3.874   3.118  0.2374  0.3042 -0.0284
 1010PW      WM 7966   2.344   3.962   3.238  0.2159 -0.3721 -0.2633
 1011PW       W 7967   3.273   3.655   8.994 -0.2929 -0.2373  0.3664
 1011PW      WP 7968   3.298   3.770   9.069 -0.1073 -0.1059  0.1082
 1011PW      WM 7969   3.401   3.614   9.033  0.1009  0.1422 -0.4114
 1012PW       W 7970  10.580   1.401   3.470 -0.0199  0.2557 -0.3451
 1012PW      WP 7971  10.703   1.359   3.417 -0.1297  0.1614 -0.5302
 1012PW      WM 7972  10.479   1.335   3.400  0.1658 -0.1846 -0.2165
 1013PW       W 7973   3.336   9.612   9.779  0.0044 -0.3376 -0.3254
 1013PW      WP 7974   3.267   9.668   9.671 -0.2045 -0.3554 -0.2032
 1013PW      WM 7975   3.349   9.486   9.839  0.2752 -0.1392  0.0547
 1014PW       W 7976   4.953   7.765  10.951  0.0986 -0.3014  0.3631
 1014PW      WP 7977   4.828   7.814  10.913  0.3128  0.2029  0.2680
 1014PW      WM 7978   5.066   7.744  10.872 -0.2987 -0.3477 -0.2238
 1015PW       W 7979   8.299   9.534   8.744 -0.1299  0.3227  0.0300
 1015PW      WP 7980   8.270   9.400   8.770 -0.0384  0.3871  0.5271
 1015PW      WM 7981   8.361   9.499   8.624 -0.2829  0.2524 -0.0289
 1016PW       W 7982   4.742   0.285  10.978 -0.0909  0.0468 -0.3147
 1016PW      WP 7983   4.646   0.299  10.878 -0.5728  0.1031  0.1373
 1016PW      WM 7984   4.780   0.161  10.925  0.4439  0.0510  0.0174
 1017PW       W 7985   9.444   5.770   3.134  0.1752  0.0783 -0.0281
 1017PW      WP 7986   9.432   5.795   2.997  0.3542  0.0788 -0.0452
 1017PW      WM 7987   9.382   5.764   3.259 -0.2205  0.3638 -0.1986
 1018PW       W 7988   1.693   3.951  10.937  0.0987 -0.3472  0.3170
 1018PW      WP 7989   1.727   3.831  11.002  0.7707 -0.2390  0.2016
 1018PW      WM 7990   1.578   3.909  10.868  0.0820  0.4904 -0.2327
 1019PW       W 7991   5.929   1.087  10.430 -0.4322 -0.5068 -0.1378
 1019PW      WP 7992   5.934   1.097  10.570 -0.2527 -0.1340 -0.1635
 1019PW      WM 7993   5.879   1.212  10.392  0.4992  0.1894  0.6323
 1020PW       W 7994  11.349   0.517   1.088 -0.1958 -0.3799  0.2308
 1020PW      WP 7995  11.372   0.653   1.109 -0.0994 -0.3192 -0.2005
 1020PW      WM 7996  11.376   0.429   1.193  0.5132 -0.2053  0.2242
 1021PW       W 7997   9.538   0.748  10.250 -0.3548 -0.1253 -0.0106
 1021PW      WP 7998   9.540   0.715  10.114  0.7680 -0.3086  0.0038
 1021PW      WM 7999   9.471   0.847  10.323 -0.1983 -0.3213  0.4167
 1022PW       W 8000   4.887   2.969  10.967 -0.3761  0.1510  0.1837
 1022PW      WP 8001   4.826   2.944  10.843 -0.4109  0.5151  0.1201
 1022PW      WM 8002   4.972   3.045  11.049  0.2329  0.3767 -0.5857
 1023PW       W 8003   0.652   1.925   3.096 -0.4086  0.6088 -0.0896
 1023PW      WP 8004   0.701   1.942   3.226 -0.2630  0.1487 -0.0764
 1023PW      WM 8005   0.649   1.887   2.961 -0.1210  0.1997  0.0086
 1024PW       W 8006   6.241   9.137  10.946  0.0613  0.0763  0.0950
 1024PW      WP 8007   6.261   9.172  10.812 -0.4147 -0.4090 -0.1217
 1024PW      WM 8008   6.118   9.074  10.970  0.0998  0.0214  0.1499
 1025PW       W 8009   7.817  11.851   5.288 -0.0982  0.4671 -0.1647
 1025PW      WP 8010   7.819  11.781   5.167  0.1315  0.0535  0.0688
 1025PW      WM 8011   7.927  11.930   5.322 -0.0643  0.2353  0.3043
 1026PW       W 8012   6.689   6.901  12.836  0.0531 -0.3370  0.0292
 1026PW      WP 8013   6.602   6.883  12.728 -0.0832 -0.1319  0.0996
 1026PW      WM 8014   6.654   6.873  12.969 -0.1105 -0.7068 -0.0834
 1027PW       W 8015   0.687   7.565   4.344 -0.1183 -0.1923  0.0539
 1027PW      WP 8016   0.745   7.438   4.355 -0.2380 -0.2194  0.4986
 1027PW      WM 8017   0.654   7.572   4.480  0.1956  0.0785  0.1218
 1028PW       W 8018   0.268   8.490  10.236 -0.4330 -0.4262 -0.1295
 1028PW      WP 8019   0.190   8.503  10.352 -0.2454  0.4313 -0.0630
 1028PW      WM 8020   0.352   8.550  10.141 -0.4725  0.0310  0.1122
 1029PW       W 8021   1.275   0.800   3.153  0.0733 -0.1570  0.1157
 1029PW      WP 8022   1.191   0.766   3.046  0.4450  0.2761 -0.3380
 1029PW      WM 8023   1.241   0.908   3.235 -0.0953  0.0145 -0.1684
 1030PW       W 8024   5.682   5.789  12.963  0.3554  0.0421  0.8062
 1030PW      WP 8025   5.578   5.832  13.047 -0.2347 -0.1622  0.2171
 1030PW      WM 8026   5.647   5.920  12.926  0.2549 -0.1734  0.0747
 1031PW       W 8027  10.713   7.606   1.647  0.0098 -0.1036  0.0443
 1031PW      WP 8028  10.730   7.737   1.600 -0.0776 -0.1724 -0.1907
 1031PW      WM 8029  10.749   7.490   1.577 -0.3838 -0.2183  0.0182
 1032PW       W 8030   5.033   5.172   8.826 -0.1942  0.0295  0.1804
 1032PW      WP 8031   5.104   5.165   8.705 -0.1227 -0.0559  0.2264
 1032PW      WM 8032   4.923   5.143   8.744  0.1489 -0.0132 -0.2889
 1033PW       W 8033   0.839   1.964  10.852  0.1581 -0.3037 -0.1287
 1033PW      WP 8034   0.785   1.837  10.827 -0.4642 -0.1135  0.1522
 1033PW      WM 8035   0.916   2.080  10.847 -0.1719 -0.0784 -0.1283
 1034PW       W 8036   3.883  10.611   8.978 -0.0160 -0.3862 -0.2083
 1034PW      WP 8037   3.948  10.547   9.083  0.0416 -0.4307 -0.2706
 1034PW      WM 8038   3.753  10.573   9.013 -0.1950  0.1885 -0.1853
 1035PW       W 8039   8.556  10.456   3.800 -0.3345  0.1873  0.4085
 1035PW      WP 8040   8.458  10.368   3.846 -0.3244 -0.0016  0.0809
 1035PW      WM 8041   8.528  10.588   3.839 -0.2296  0.2295  0.3442
 1036PW       W 8042  11.738   9.683  10.736  0.2278  0.3025  0.2007
 1036PW      WP 8043  11.704   9.766  10.629  0.1031 -0.0513 -0.0462
 1036PW      WM 8044  11.869   9.645  10.705  0.0650 -0.1597  0.0371
 1037PW       W 8045   3.651  11.190   3.535  0.1256 -0.0060 -0.1864
 1037PW      WP 8046   3.607  11.287   3.625 -0.2085  0.0783 -0.4350
 1037PW      WM 8047   3.581  11.186   3.414  0.1671  0.0623 -0.2127
 1038PW       W 8048   8.717   5.549   0.041  0.0532 -0.1157  0.0955
 1038PW      WP 8049   8.834   5.562  -0.034  0.0939  0.2878  0.2199
 1038PW      WM 8050   8.670   5.522   0.170 -0.7578 -0.0284 -0.1540
 1039PW       W 8051   8.579   3.926   9.124 -0.5784 -0.1023  0.4052
 1039PW      WP 8052   8.599   4.064   9.108  0.2242 -0.2346  0.0070
 1039PW      WM 8053   8.595   3.795   9.172  0.0462 -0.1452  0.1235
 1040PW       W 8054   4.476   2.636  11.709 -0.0720 -0.2233 -0.5541
 1040PW      WP 8055   4.356   2.677  11.769  0.2315 -0.1221  0.0274
 1040PW      WM 8056   4.613   2.661  11.693  0.0065 -0.2110  0.0106
 1041PW       W 8057  12.092   9.756  11.138  0.2499 -0.2168  0.2448
 1041PW      WP 8058  12.152   9.875  11.182  0.3959 -0.1589 -0.0958
 1041PW      WM 8059  11.954   9.774  11.146  0.2958  0.3023  0.1017
 1042PW       W 8060   4.783   3.718   5.158  0.3923  0.3562  0.2793
 1042PW      WP 8061   4.750   3.839   5.221 -0.3357  0.2048  0.2325
 1042PW      WM 8062   4.900   3.644   5.177  0.3104  0.1732  0.0987
 1043PW       W 8063   1.122  12.024   1.467 -0.1518  0.2756  0.0148
 1043PW      WP 8064   1.251  12.047   1.417  0.0314  0.5310  0.5663
 1043PW      WM 8065   0.986  12.024   1.431 -0.1738  0.2887  0.0977
 1044PW       W 8066  11.484   3.942  10.262  0.5502  0.4634 -0.1548
 1044PW      WP 8067  11.512   3.866  10.376 -0.4595 -0.1069 -0.2251
 1044PW      WM 8068  11.542   3.963  10.136  0.5212  0.9264 -0.0998
 1045PW       W 8069   3.253   5.322  11.558 -0.1652 -0.0961 -0.0036
 1045PW      WP 8070   3.392   5.322  11.571 -0.1959  0.0981  0.3963
 1045PW      WM 8071   3.266   5.300  11.420 -0.3844 -0.2688 -0.0009
 1046PW       W 8072   3.508   7.631   5.292  0.2057 -0.1952  0.3023
 1046PW      WP 8073   3.533   7.762   5.250  0.0003 -0.2741 -0.0814
 1046PW      WM 8074   3.631   7.639   5.227 -0.3256  0.2318 -0.7674
 1047PW       W 8075   7.943   8.105   4.174  0.3023 -0.1782  0.0124
 1047PW      WP 8076   8.053   8.023   4.202  0.5519  0.2564  0.3809
 1047PW      WM 8077   8.006   8.213   4.237  0.2838  0.0569 -0.3556
 1048PW       W 8078   8.719   3.912  12.210 -0.2463  0.0765  0.5401
 1048PW      WP 8079   8.782   4.037  12.216 -0.0194  0.1235 -0.9060
 1048PW      WM 8080   8.690   3.778  12.184  0.3472  0.0501 -0.1701
 1049PW       W 8081   3.801   4.083  12.057  0.3161 -0.1070  0.2173
 1049PW      WP 8082   3.734   3.992  11.975 -0.1945 -0.0602  0.5564
 1049PW      WM 8083   3.833   4.041  12.187 -0.0156 -0.2000  0.2744
 1050PW       W 8084   2.408  10.598   9.410 -0.1650 -0.2776 -0.0680
 1050PW      WP 8085   2.442  10.727   9.454 -0.1745 -0.2529 -0.1315
 1050PW      WM 8086   2.410  10.481   9.485  0.2953 -0.1210  0.1818
 1051PW       W 8087  11.925   3.924  10.964  0.1576  0.3097  0.3377
 1051PW      WP 8088  11.911   3.873  11.093  0.5238 -0.0308  0.2535
 1051PW      WM 8089  11.832   3.863  10.879  0.1859  0.1787  0.4003
 1052PW       W 8090   8.221  12.040  10.490  0.0969  0.0079 -0.3645
 1052PW      WP 8091   8.148  11.922  10.472 -0.1463  0.1185 -0.1337
 1052PW      WM 8092   8.209  12.161  10.560  0.3462 -0.0423 -0.2274
 1053PW       W 8093   6.620   6.005   4.379 -0.0258  0.3056 -0.1462
 1053PW      WP 8094   6.524   5.954   4.468  0.3310 -0.0922  0.0318
 1053PW      WM 8095   6.660   6.075   4.494 -0.6394  0.2295  0.1393
 1054PW       W 8096   5.122   7.341  11.230 -0.1174 -0.0571  0.0805
 1054PW      WP 8097   5.110   7.227  11.150 -0.4679  0.1918 -0.2344
 1054PW      WM 8098   5.194   7.461  11.231 -0.0425 -0.0993 -0.1068
 1055PW       W 8099   6.528  11.675  10.079 -0.0077  0.0936  0.2901
 1055PW      WP 8100   6.400  11.690  10.134  0.0996 -0.1246  0.6148
 1055PW      WM 8101   6.593  11.794  10.042  0.1393  0.0876  0.5137
 1056PW       W 8102  10.797   7.895  12.417  0.2474 -0.3334 -0.3559
 1056PW      WP 8103  10.707   7.814  12.488  0.2349  0.0109  0.0424
 1056PW      WM 8104  10.895   7.981  12.365  0.3449 -0.3035 -0.1334
 1057PW       W 8105   9.166   1.115   1.386  0.6822 -0.2410 -0.3527
 1057PW      WP 8106   9.120   1.045   1.273 -0.2751 -0.4643  0.1224
 1057PW      WM 8107   9.195   1.235   1.320  0.8775  0.2501  0.5395
 1058PW       W 8108   9.334   3.215  11.386  0.2633  0.6550 -0.2166
 1058PW      WP 8109   9.304   3.342  11.336  0.1106  0.5186 -0.4884
 1058PW      WM 8110   9.317   3.169  11.255 -0.4939  0.3020 -0.0249
 1059PW       W 8111   8.780   6.977   3.054  0.0437 -0.2205 -0.2214
 1059PW      WP 8112   8.662   6.981   3.129 -0.1326 -0.8848 -0.4340
 1059PW      WM 8113   8.677   6.991   2.960 -0.0614 -0.1261 -0.0957
 1060PW       W 8114   9.692   3.627   9.718  0.0166  0.2280 -0.0907
 1060PW      WP 8115   9.676   3.650   9.855  0.0582 -0.4741  0.0505
 1060PW      WM 8116   9.815   3.678   9.760 -0.0118  0.1232  0.1245
 1061PW       W 8117   2.922   1.246  12.432 -0.1803  0.1252 -0.0364
 1061PW      WP 8118   2.925   1.310  12.308  0.5084  0.0401 -0.0834
 1061PW      WM 8119   3.061   1.229  12.432 -0.1046  0.6544  0.1251
 1062PW       W 8120   3.972   7.338   4.530 -0.6021 -0.6941  0.1483
 1062PW      WP 8121   4.019   7.354   4.661 -0.6203 -0.1156  0.0946
 1062PW      WM 8122   4.033   7.429   4.444 -0.8469 -0.3193  0.3579
 1063PW       W 8123   6.382   6.864   1.183  0.3243  0.0237  0.0204
 1063PW      WP 8124   6.438   6.809   1.299 -0.1637  0.3684  0.4447
 1063PW      WM 8125   6.280   6.769   1.196  0.0898  0.2732  0.0419
 1064PW       W 8126  11.991   1.931  12.307  0.3257  0.0026  0.0228
 1064PW      WP 8127  11.915   1.960  12.421  0.0803 -0.3245 -0.0506
 1064PW      WM 8128  12.092   1.834  12.308  0.0037 -0.3495 -0.1564
 1065PW       W 8129   5.177   7.684   0.536 -0.2570  0.2472  0.4426
 1065PW      WP 8130   5.269   7.613   0.614  0.0674  0.0394 -0.1045
 1065PW      WM 8131   5.237   7.582   0.461  0.0806  0.4140  0.4765
 1066PW       W 8132  10.922  11.717  11.779 -0.1732 -0.3856 -0.2022
 1066PW      WP 8133  10.995  11.621  11.709 -0.4108 -0.4141 -0.4177
 1066PW      WM 8134  10.956  11.822  11.866  0.1318 -0.1231 -0.6179
 1067PW       W 8135   9.577   6.548  11.240 -0.2140 -0.0337  0.0250
 1067PW      WP 8136   9.702   6.597  11.200 -0.1959 -0.1269 -0.0341
 1067PW      WM 8137   9.579   6.612  11.115 -0.1501 -0.2044 -0.0618
 1068PW       W 8138   6.647   8.986   9.096 -0.1424  0.1583 -0.3721
 1068PW      WP 8139   6.638   9.065   8.980 -0.3581  0.2760 -0.2794
 1068PW      WM 8140   6.769   8.918   9.107 -0.1889  0.1571  0.3568
 1069PW       W 8141   6.322   0.606  11.130  0.3572  0.0439  0.1413
 1069PW      WP 8142   6.266   0.529  11.233  0.0276  0.4617  0.2872
 1069PW      WM 8143   6.304   0.597  10.991 -0.2995  0.1256  0.2053
 1070PW       W 8144   8.115   3.965   3.202  0.1542 -0.0812  0.1215
 1070PW      WP 8145   8.221   3.897   3.261  0.0893 -0.0249  0.3057
 1070PW      WM 8146   8.122   3.948   3.340 -0.1952  0.3913  0.2111
 1071PW       W 8147   9.912   2.477  12.251 -0.3731  0.3072  0.2425
 1071PW      WP 8148   9.817   2.378  12.220  0.0806  0.0660 -0.4997
 1071PW      WM 8149   9.915   2.606  12.305  0.0886  0.2250  0.4335
 1072PW       W 8150  10.831   6.432   3.158  0.4472 -0.2149  0.1190
 1072PW      WP 8151  10.715   6.379   3.214  0.2136  0.1013 -0.0480
 1072PW      WM 8152  10.891   6.388   3.039  0.1603 -0.3156  0.0085
 1073PW       W 8153  10.376   8.233   3.105 -0.0580  0.0404 -0.1572
 1073PW      WP 8154  10.450   8.126   3.053 -0.3081 -0.2534  0.0658
 1073PW      WM 8155  10.435   8.355   3.138 -0.2519  0.0297  0.2756
 1074PW       W 8156   2.934   4.809   2.189  0.2175 -0.2021 -0.3996
 1074PW      WP 8157   2.853   4.742   2.282  0.3600  0.1074 -0.0411
 1074PW      WM 8158   2.938   4.898   2.081  0.3252  0.0125 -0.2224
 1075PW       W 8159  10.296   3.162   9.746  0.0754  0.1839  0.1193
 1075PW      WP 8160  10.199   3.238   9.680  0.1807  0.1052 -0.1296
 1075PW      WM 8161  10.226   3.086   9.841 -0.1791 -0.0194 -0.2210
 1076PW       W 8162  10.164  10.209  11.088  0.2650  0.0910  0.2782
 1076PW      WP 8163  10.266  10.144  11.017  0.2071  0.1354  0.1526
 1076PW      WM 8164  10.211  10.318  11.162  0.2920  0.0515  0.3205
 1077PW       W 8165   7.314   4.977   1.960  0.0719 -0.1080  0.3380
 1077PW      WP 8166   7.377   4.895   2.055 -0.0933 -0.5614  0.0742
 1077PW      WM 8167   7.289   5.015   2.093  0.4165 -0.5390  0.5380
 1078PW       W 8168   7.338   7.096   0.181  0.0961 -0.2232  0.2759
 1078PW      WP 8169   7.358   7.167   0.062  0.0293 -0.5300  0.0778
 1078PW      WM 8170   7.234   7.008   0.151 -0.1646  0.1561  0.0125
 1079PW       W 8171   8.822  11.716  12.185 -0.3439  0.2202  0.1689
 1079PW      WP 8172   8.770  11.685  12.059 -0.2631  0.3617  0.0995
 1079PW      WM 8173   8.822  11.646  12.306  0.1168 -0.2759 -0.1004
 1080PW       W 8174   2.499   2.404  10.008  0.1510  0.2986  0.0617
 1080PW      WP 8175   2.421   2.291   9.980  0.0734  0.3372  0.1195
 1080PW      WM 8176   2.456   2.507   9.924  0.1257  0.2056 -0.0399
 1081PW       W 8177   8.484   4.213  12.635  0.1867 -0.0287  0.0857
 1081PW      WP 8178   8.522   4.079  12.627 -0.5025 -0.2306 -0.1777
 1081PW      WM 8179   8.515   4.235  12.500  0.0698  0.0198  0.0657
 1082PW       W 8180   5.674   0.209  12.204  0.1743  0.3249 -0.6299
 1082PW      WP 8181   5.588   0.251  12.305  0.5218 -0.2350 -0.0699
 1082PW      WM 8182   5.573   0.149  12.128  0.0838  0.4479 -0.6081
 1083PW       W 8183  10.538   7.232   4.000  0.0349 -0.4161  0.0139
 1083PW      WP 8184  10.401   7.264   3.996  0.1419  0.0754 -0.0287
 1083PW      WM 8185  10.569   7.293   4.123  0.6042  0.3724 -0.4735
 1084PW       W 8186   1.412   7.308  10.681  0.1090  0.3805 -0.1444
 1084PW      WP 8187   1.504   7.314  10.575  0.0013  0.0245 -0.2655
 1084PW      WM 8188   1.318   7.389  10.745 -0.5979 -0.3828 -0.1359
 1085PW       W 8189   5.400   6.136   8.337 -0.3995  0.1380  0.3727
 1085PW      WP 8190   5.454   6.227   8.430 -0.0984  0.2465  0.0989
 1085PW      WM 8191   5.410   6.017   8.409  0.4178  0.4078  0.7632
 1086PW       W 8192   3.707   7.624   0.644  0.3344  0.2663  0.2624
 1086PW      WP 8193   3.778   7.518   0.702  0.5402  0.0014 -0.4224
 1086PW      WM 8194   3.599   7.600   0.729  0.0762 -0.3592 -0.2026
 1087PW       W 8195   3.809   0.091   1.710  0.1833 -0.1549  0.2429
 1087PW      WP 8196   3.797  -0.045   1.677  0.4667 -0.0821 -0.1905
 1087PW      WM 8197   3.696   0.157   1.760 -0.0058  0.1688 -0.5493
 1088PW       W 8198   9.738  11.564  10.177  0.0191 -0.0424 -0.0888
 1088PW      WP 8199   9.726  11.475  10.070 -0.2972 -0.4915  0.2975
 1088PW      WM 8200   9.806  11.677  10.132  0.2166 -0.0998  0.0561
 1089PW       W 8201   3.248  11.849  12.643 -0.1860 -0.0064  0.1260
 1089PW      WP 8202   3.305  11.863  12.516  0.3430  0.4537  0.3893
 1089PW      WM 8203   3.134  11.854  12.562 -0.2582  0.0979  0.2327
 1090PW       W 8204   2.976   8.155   1.991  0.4781  0.3472  0.0069
 1090PW      WP 8205   2.890   8.099   1.895  0.3000  1.1236 -0.3244
 1090PW      WM 8206   2.954   8.094   2.115  0.2772 -0.2937 -0.3225
 1091PW       W 8207   2.442   0.472   9.222  0.1070  0.0465 -0.2320
 1091PW      WP 8208   2.491   0.351   9.274  0.5457  0.1562 -0.3698
 1091PW      WM 8209   2.347   0.377   9.262  0.1751 -0.0022 -0.1829
 1092PW       W 8210   9.159  10.477  10.659 -0.0866  0.1759  0.3976
 1092PW      WP 8211   9.251  10.397  10.727 -0.2354 -0.3976 -0.0406
 1092PW      WM 8212   9.253  10.571  10.616 -0.0638  0.1049  0.2885
 1093PW       W 8213   5.862  11.182  13.308  0.3044 -0.0855  0.0480
 1093PW      WP 8214   5.906  11.312  13.337  0.2745 -0.0361 -0.1279
 1093PW      WM 8215   5.942  11.111  13.398  0.2316  0.1015  0.2653
 1094PW       W 8216   9.895   2.719   2.286 -0.0710  0.3656 -0.0577
 1094PW      WP 8217   9.940   2.803   2.389 -0.6413  0.3562  0.2194
 1094PW      WM 8218   9.839   2.846   2.267 -0.3191  0.1716 -0.7544
 1095PW       W 8219  11.097   8.202  12.200  0.5093  0.1370  0.1777
 1095PW      WP 8220  10.995   8.134  12.269 -0.0696  0.2577 -0.4987
 1095PW      WM 8221  11.167   8.081  12.183  0.2376  0.0336 -0.3094
 1096PW       W 8222   8.631   2.889   4.486  0.0869 -0.1431 -0.2123
 1096PW      WP 8223   8.725   2.989   4.457 -0.2653  0.2627 -0.0135
 1096PW      WM 8224   8.495   2.867   4.464 -0.1273  0.4462  0.3552
 1097PW       W 8225  11.121   7.297   8.412 -0.1089  0.2973 -0.5495
 1097PW      WP 8226  11.108   7.429   8.456 -0.2435  0.1082  0.0184
 1097PW      WM 8227  11.226   7.248   8.491 -0.1400  0.1101 -0.6217
 1098PW       W 8228   1.652   7.980   2.533 -0.0606  0.0442 -0.2676
 1098PW      WP 8229   1.572   7.896   2.455  0.0343  0.1989 -0.5391
 1098PW      WM 8230   1.648   8.022   2.666  0.2006  0.3319 -0.3444
 1099PW       W 8231   1.256   8.587  12.559 -0.0487 -0.2992  0.1594
 1099PW      WP 8232   1.205   8.495  12.467 -0.6157 -0.4802  0.6206
 1099PW      WM 8233   1.179   8.662  12.650  0.2337  0.2453 -0.0307
 1100PW       W 8234   6.001   6.604   1.101  0.0367  0.1962 -0.1326
 1100PW      WP 8235   6.094   6.678   1.175  0.0152 -0.0838  0.1896
 1100PW      WM 8236   6.034   6.582   0.967  0.4957  0.2353 -0.0365
 1101PW       W 8237   3.591   3.375   0.301  0.2069 -0.0082 -0.4192
 1101PW      WP 8238   3.670   3.266   0.263 -0.4161 -0.4434 -0.5402
 1101PW      WM 8239   3.542   3.477   0.218 -0.2425 -0.2693 -0.4923
 1102PW       W 8240   0.768   0.675   2.951  0.6055 -0.1473  0.1366
 1102PW      WP 8241   0.742   0.601   2.835  0.0987  0.3716 -0.1089
 1102PW      WM 8242   0.748   0.662   3.089  0.5248 -0.0525  0.1344
 1103PW       W 8243   7.539  11.563  10.789  0.1771  0.1060  0.3472
 1103PW      WP 8244   7.446  11.545  10.685 -0.0220  0.5307  0.4394
 1103PW      WM 8245   7.618  11.476  10.713 -0.7457 -0.4197 -0.0969
 1104PW       W 8246   2.624   2.160   2.975  0.1123 -0.1217  0.0455
 1104PW      WP 8247   2.636   2.022   2.956  0.7333 -0.0950  0.1400
 1104PW      WM 8248   2.564   2.056   3.046 -0.1745 -0.0003 -0.0091
 1105PW       W 8249   5.462   7.365   8.755  0.3413 -0.2904  0.2333
 1105PW      WP 8250   5.368   7.295   8.678 -0.1599  0.3540  0.2135
 1105PW      WM 8251   5.425   7.464   8.663 -0.3917 -0.2288  0.5619
 1106PW       W 8252   4.422   7.813  10.268 -0.2031 -0.4400  0.3489
 1106PW      WP 8253   4.415   7.893  10.383 -0.4065  0.4285 -0.2144
 1106PW      WM 8254   4.305   7.739  10.245 -0.3910 -0.0609  0.0172
 1107PW       W 8255   3.352   9.199  10.096 -0.1072 -0.1264 -0.1927
 1107PW      WP 8256   3.352   9.300   9.999 -0.3107  0.2060  0.1389
 1107PW      WM 8257   3.460   9.151  10.022  0.0381 -0.0856 -0.0104
 1108PW       W 8258   6.800   2.809  11.281  0.0040  0.3185 -0.6011
 1108PW      WP 8259   6.703   2.908  11.298  0.3111  0.5164  0.3233
 1108PW      WM 8260   6.702   2.747  11.204 -0.2831 -0.4454  0.2942
 1109PW       W 8261   2.392  10.332  12.711 -0.2780 -0.1083  0.0149
 1109PW      WP 8262   2.289  10.423  12.735 -0.0745  0.1812 -0.1687
 1109PW      WM 8263   2.490  10.379  12.799 -0.4968 -0.4808  0.4817
 1110PW       W 8264   8.753   0.188  13.321  0.2674 -0.1942  0.4195
 1110PW      WP 8265   8.788   0.282  13.224  0.3595 -0.2920  0.3568
 1110PW      WM 8266   8.678   0.070  13.308 -0.0204  0.0017  0.2309
 1111PW       W 8267   4.029   5.103   2.586 -0.0997 -0.2348 -0.2158
 1111PW      WP 8268   3.962   5.162   2.478  0.1736 -0.0806 -0.3051
 1111PW      WM 8269   3.931   5.112   2.685  0.0893 -0.3540 -0.0125
 1112PW       W 8270   4.044   6.420   0.671  0.0398 -0.2220  0.0014
 1112PW      WP 8271   3.976   6.505   0.584  0.2030 -0.0617  0.0275
 1112PW      WM 8272   4.150   6.340   0.626  0.2832 -0.0513  0.2536
 1113PW       W 8273   2.043   6.670  12.879  0.4123 -0.1591  0.2339
 1113PW      WP 8274   2.132   6.775  12.906 -0.0246  0.2608  0.0980
 1113PW      WM 8275   2.082   6.539  12.850 -0.0358 -0.3065  0.2611
 1114PW       W 8276   2.236   9.907   3.121  0.2400 -0.1022 -0.1614
 1114PW      WP 8277   2.222  10.018   3.206  0.2881 -0.1835 -0.0464
 1114PW      WM 8278   2.161   9.810   3.190 -0.0135  0.0106 -0.2697
 1115PW       W 8279   5.070  11.818   4.371  0.4516 -0.1035 -0.0828
 1115PW      WP 8280   5.037  11.718   4.463 -0.6562 -0.2308 -0.5387
 1115PW      WM 8281   5.092  11.946   4.318 -0.2114 -0.0825 -0.3608
 1116PW       W 8282   5.966   7.104   9.609 -0.2607  0.0881 -0.2983
 1116PW      WP 8283   6.104   7.114   9.629 -0.2575 -0.4145  0.0196
 1116PW      WM 8284   5.992   7.144   9.477  0.2465  0.1741 -0.1812
 1117PW       W 8285   7.145   3.782   4.253 -0.1097 -0.0420 -0.0778
 1117PW      WP 8286   7.009   3.762   4.276 -0.1346 -0.0755 -0.2444
 1117PW      WM 8287   7.277   3.751   4.288 -0.0081  0.1968 -0.2356
 1118PW       W 8288   0.847   8.145   0.315  0.2596  0.2038  0.1383
 1118PW      WP 8289   0.956   8.094   0.387  0.0265 -0.0349  0.3292
 1118PW      WM 8290   0.864   8.230   0.204 -0.5050 -0.1933 -0.3219
 1119PW       W 8291   8.361   1.910   9.355 -0.1507  0.1837 -0.0480
 1119PW      WP 8292   8.327   1.814   9.452  0.0439 -0.0265 -0.1843
 1119PW      WM 8293   8.269   1.995   9.293 -0.1005  0.0492 -0.3173
 1120PW       W 8294   7.553   4.039  12.551 -0.0611 -0.0553  0.3543
 1120PW      WP 8295   7.600   3.929  12.624 -0.3486  0.3359  1.1939
 1120PW      WM 8296   7.485   4.099  12.657 -0.6055 -0.1082  0.0546
 1121PW       W 8297   6.347   5.787   3.829  0.3519  0.1176 -0.0113
 1121PW      WP 8298   6.217   5.829   3.801  0.4720  0.5501  0.0380
 1121PW      WM 8299   6.427   5.767   3.716  0.1571 -0.5105 -0.0568
 1122PW       W 8300   9.977  10.198  12.241  0.2197  0.3937  0.2126
 1122PW      WP 8301   9.980  10.195  12.101 -0.0098  0.0712  0.2109
 1122PW      WM 8302   9.840  10.195  12.268  0.1042 -0.0339 -0.3401
 1123PW       W 8303   4.437   5.101  12.861 -0.1448  0.5728  0.1093
 1123PW      WP 8304   4.451   5.042  12.987 -0.2273 -0.2147 -0.2199
 1123PW      WM 8305   4.560   5.163  12.836  0.1581 -0.0241  0.0426
 1124PW       W 8306   1.762   3.138  11.704 -0.3543 -0.2059  0.1908
 1124PW      WP 8307   1.729   3.130  11.568 -0.0403  0.0986  0.0897
 1124PW      WM 8308   1.845   3.126  11.816  0.4043  0.4524 -0.2457
 1125PW       W 8309   2.501   0.428   1.614  0.1605 -0.3237  0.2390
 1125PW      WP 8310   2.632   0.388   1.640  0.1479 -0.1560  0.5766
 1125PW      WM 8311   2.471   0.344   1.505 -0.0465 -0.0125  0.0475
 1126PW       W 8312   4.924   8.279   9.045 -0.0988 -0.0510 -0.0966
 1126PW      WP 8313   4.865   8.256   9.170  0.2484 -0.4844 -0.0003
 1126PW      WM 8314   4.846   8.217   8.947  0.2562 -0.5347 -0.0915
 1127PW       W 8315   4.677   0.726   3.442 -0.1563  0.2680 -0.1574
 1127PW      WP 8316   4.663   0.754   3.305 -0.0659 -0.2103 -0.2732
 1127PW      WM 8317   4.750   0.611   3.474  0.3753  0.5200 -0.4056
 1128PW       W 8318   1.294   1.628  10.857 -0.2629  0.2030  0.0808
 1128PW      WP 8319   1.279   1.508  10.928  0.1341 -0.2794 -0.5866
 1128PW      WM 8320   1.188   1.689  10.789 -0.0250  0.4517 -0.0787
 1129PW       W 8321   0.067   5.196   2.417  0.0908 -0.1740 -0.2567
 1129PW      WP 8322   0.121   5.134   2.530  0.0607 -0.3509 -0.3380
 1129PW      WM 8323  -0.067   5.236   2.415  0.1521  0.0417 -0.1836
 1130PW       W 8324  11.507   9.960  11.826  0.0679 -0.1027  0.3079
 1130PW      WP 8325  11.415  10.010  11.920 -0.0632  0.3957 -0.0637
 1130PW      WM 8326  11.410   9.859  11.818  0.1330 -0.1516  0.0923
 1131PW       W 8327   2.767   7.336   0.534 -0.3178  0.3025  0.1290
 1131PW      WP 8328   2.858   7.378   0.632  0.0260  0.3938 -0.2157
 1131PW      WM 8329   2.827   7.405   0.428  0.4484 -0.1373  0.2306
 1132PW       W 8330   4.131   1.933   4.095  0.2543  0.1417  0.0601
 1132PW      WP 8331   4.186   1.892   4.217 -0.0788 -0.2549  0.0897
 1132PW      WM 8332   4.028   1.924   4.000  0.2713  0.0826  0.0471
 1133PW       W 8333   9.534   1.922  11.817  0.3707  0.2984  0.1795
 1133PW      WP 8334   9.530   1.914  11.957 -0.0133  0.4518  0.1820
 1133PW      WM 8335   9.564   2.020  11.912 -0.0782  0.2512  0.3820
 1134PW       W 8336   7.968  11.554   9.387  0.1874  0.0638 -0.0740
 1134PW      WP 8337   7.971  11.414   9.375  0.4989  0.1091 -0.7771
 1134PW      WM 8338   7.851  11.554   9.464  0.1793 -0.1536 -0.0828
 1135PW       W 8339  10.121   9.416   2.654  0.1599  0.0506 -0.3844
 1135PW      WP 8340  10.257   9.383   2.654  0.1894  0.1032  0.3926
 1135PW      WM 8341  10.240   9.342   2.646 -0.0290 -0.2615 -0.4098
 1136PW       W 8342   8.226   0.236   9.328 -0.2152 -0.0574  0.2426
 1136PW      WP 8343   8.216   0.375   9.329  0.0045 -0.0389  0.0809
 1136PW      WM 8344   8.363   0.233   9.302 -0.2223 -0.0365  0.2041
 1137PW       W 8345  11.163   1.768   9.017 -0.4308  0.1279  0.3521
 1137PW      WP 8346  11.107   1.684   8.920  0.1867 -0.1399  0.2087
 1137PW      WM 8347  11.287   1.825   9.047 -0.0278 -0.5411  0.0762
 1138PW       W 8348   8.388   8.562  10.272 -0.2016  0.0897  0.2659
 1138PW      WP 8349   8.304   8.656  10.211  0.0706  0.3819  0.3233
 1138PW      WM 8350   8.462   8.629  10.371  0.7318  0.1929 -0.4367
 1139PW       W 8351   4.114   8.305   3.853 -0.1413 -0.1423 -0.1822
 1139PW      WP 8352   4.098   8.268   3.719  0.0813  0.7349 -0.4916
 1139PW      WM 8353   4.005   8.389   3.828  0.0783 -0.0191 -0.8543
 1140PW       W 8354  11.805   5.471   4.721  0.1782 -0.1698 -0.1920
 1140PW      WP 8355  11.693   5.413   4.782  0.1432 -0.0640 -0.1550
 1140PW      WM 8356  11.735   5.533   4.616 -0.2753 -0.8478 -0.3269
 1141PW       W 8357   6.415   7.802   0.230  0.0714  0.0579 -0.0783
 1141PW      WP 8358   6.397   7.906   0.138 -0.7205  0.0346  0.0115
 1141PW      WM 8359   6.468   7.707   0.318 -0.4017  0.2112  0.4010
 1142PW       W 8360   9.460   9.177   4.684  0.0313 -0.3298 -0.1426
 1142PW      WP 8361   9.374   9.266   4.749  0.4551 -0.1089  0.1352
 1142PW      WM 8362   9.431   9.040   4.691 -0.6522 -0.2079 -0.2637
 1143PW       W 8363   0.147   9.781   3.649  0.0523  0.1848 -0.1067
 1143PW      WP 8364   0.061   9.798   3.540 -0.1292  0.1016  0.0207
 1143PW      WM 8365   0.220   9.685   3.720 -0.1856  0.0914  0.0200
 1144PW       W 8366   8.510   1.389   2.792 -0.0411  0.1581  0.0585
 1144PW      WP 8367   8.381   1.341   2.766  0.1866 -0.4893  0.0493
 1144PW      WM 8368   8.633   1.383   2.859 -0.1003  0.2892  0.1825
 1145PW       W 8369   6.121  11.675  11.723  0.1496 -0.3558 -0.1266
 1145PW      WP 8370   6.068  11.563  11.788  0.0057  0.1194  0.6322
 1145PW      WM 8371   6.251  11.626  11.710  0.1275 -0.4282 -0.0806
 1146PW       W 8372   4.648   7.543   2.270  0.0246  0.2152  0.0023
 1146PW      WP 8373   4.519   7.496   2.244 -0.1110  0.0985  0.7589
 1146PW      WM 8374   4.689   7.510   2.140  0.1873  0.1569  0.0665
 1147PW       W 8375   0.512   5.810  12.288 -0.0135  0.1820  0.1065
 1147PW      WP 8376   0.474   5.708  12.201 -0.1132  0.0385  0.3133
 1147PW      WM 8377   0.461   5.836  12.161 -0.1989 -0.0241  0.1368
 1148PW       W 8378  11.147   1.147  11.144 -0.2407  0.3540 -0.3938
 1148PW      WP 8379  11.274   1.091  11.160 -0.5670 -0.3837 -0.1384
 1148PW      WM 8380  11.089   1.095  11.028 -0.3635  0.1651 -0.2513
 1149PW       W 8381   9.198   9.866   3.871 -0.0160 -0.1897 -0.6001
 1149PW      WP 8382   9.096   9.862   3.775 -0.7073  0.3327  0.0540
 1149PW      WM 8383   9.148   9.988   3.823 -0.3556 -0.0368  0.0824
 1150PW       W 8384   1.784   6.852   4.193  0.0469  0.6493 -0.2242
 1150PW      WP 8385   1.665   6.877   4.123 -0.1332  0.0155 -0.1763
 1150PW      WM 8386   1.826   6.757   4.100 -0.2263 -0.3626  0.5854
 1151PW       W 8387   5.863   6.276   5.404  0.1722 -0.3398 -0.0288
 1151PW      WP 8388   5.920   6.340   5.293  0.0089 -0.1426 -0.0030
 1151PW      WM 8389   5.728   6.281   5.369  0.1027 -0.1014  0.2521
 1152PW       W 8390   8.596   8.400  11.195  0.1842  0.1718 -0.0507
 1152PW      WP 8391   8.602   8.418  11.334  0.2119  0.0251 -0.0328
 1152PW      WM 8392   8.712   8.379  11.120  0.2510 -0.4280  0.1948
 1153PW       W 8393  10.342   9.039   3.292  0.1714  0.2309 -0.1424
 1153PW      WP 8394  10.414   9.077   3.179 -0.0734  0.0318 -0.3719
 1153PW      WM 8395  10.309   9.124   3.399  0.1621  0.0075  0.0365
 1154PW       W 8396   5.750   0.593  11.784  0.1071 -0.0606  0.4641
 1154PW      WP 8397   5.616   0.592  11.823 -0.0963  0.1965 -0.1551
 1154PW      WM 8398   5.845   0.695  11.772  0.2754 -0.2713 -0.2686
 1155PW       W 8399   4.605   8.677  12.726  0.1009  0.4488  0.1365
 1155PW      WP 8400   4.627   8.780  12.633 -0.3079  0.1128 -0.3662
 1155PW      WM 8401   4.680   8.567  12.682 -0.4300  0.1248 -0.0076
 1156PW       W 8402   5.318   6.030   8.801  0.2529  0.0692  0.2051
 1156PW      WP 8403   5.232   5.922   8.777 -0.0290  0.3270  0.0155
 1156PW      WM 8404   5.342   6.113   8.911  0.2282  0.1680  0.1365
 1157PW       W 8405   8.034  10.226  11.086  0.2476  0.2493 -0.0809
 1157PW      WP 8406   8.065  10.179  10.957 -0.2434 -0.3616 -0.0002
 1157PW      WM 8407   8.143  10.233  10.998  0.0840  0.0129 -0.3097
 1158PW       W 8408   3.169   6.562   3.595  0.1339 -0.2142  0.4424
 1158PW      WP 8409   3.092   6.673   3.629  0.3898  0.0858  0.0849
 1158PW      WM 8410   3.297   6.617   3.578  0.2901 -0.6775 -0.0616
 1159PW       W 8411   3.920   9.800  11.423  0.0281 -0.3996 -0.3742
 1159PW      WP 8412   3.916   9.820  11.284  0.3583 -0.0660 -0.3436
 1159PW      WM 8413   3.990   9.697  11.487 -0.1786 -0.1926  0.2124
 1160PW       W 8414   6.893   6.837  12.317 -0.1472  0.0527 -0.0470
 1160PW      WP 8415   6.995   6.931  12.333 -0.5270  0.4924 -0.1063
 1160PW      WM 8416   6.886   6.704  12.273 -0.3334 -0.0021  0.1410
 1161PW       W 8417   6.051   3.803   8.793 -0.0466  0.0491 -0.2576
 1161PW      WP 8418   5.956   3.729   8.865  0.0381 -0.3516 -0.5379
 1161PW      WM 8419   6.084   3.934   8.759  0.8663  0.0240  0.3574
 1162PW       W 8420   9.438  10.545   3.216  0.1111  0.3461 -0.1982
 1162PW      WP 8421   9.372  10.430   3.171 -0.3391  0.6811 -0.4370
 1162PW      WM 8422   9.316  10.610   3.197 -0.2508 -0.2528 -0.0414
 1163PW       W 8423  10.046   8.732   1.650 -0.0523  0.2137  0.3830
 1163PW      WP 8424  10.044   8.848   1.571  0.2920 -0.0663 -0.0584
 1163PW      WM 8425   9.913   8.731   1.695 -0.2306  0.1264 -0.1210
 1164PW       W 8426   5.427   4.734  10.193  0.1033 -0.4399  0.2274
 1164PW      WP 8427   5.508   4.655  10.110  0.3664  0.2883 -0.2513
 1164PW      WM 8428   5.400   4.832  10.289  0.1741 -0.2438  0.0486
 1165PW       W 8429   2.902   9.117   0.388  0.1772 -0.1719  0.2036
 1165PW      WP 8430   2.875   9.252   0.359  0.2822 -0.1895  0.0171
 1165PW      WM 8431   2.904   9.118   0.248 -0.2320  0.3028  0.1864
 1166PW       W 8432   7.254   5.201  12.380 -0.1312  0.1530 -0.0963
 1166PW      WP 8433   7.292   5.078  12.324  0.6968  0.4003 -0.1489
 1166PW      WM 8434   7.207   5.333  12.388  0.1463  0.2709 -0.3326
 1167PW       W 8435   3.620   4.073   8.816 -0.0782 -0.0773 -0.3892
 1167PW      WP 8436   3.500   4.096   8.748 -0.0445  0.0856 -0.3941
 1167PW      WM 8437   3.722   4.159   8.775  0.0492  0.2309  0.4711
 1168PW       W 8438   4.697   3.446   4.518 -0.1341 -0.7667 -0.1959
 1168PW      WP 8439   4.800   3.411   4.430  0.1457 -0.4520 -0.0075
 1168PW      WM 8440   4.626   3.566   4.530  0.1432 -0.6324  0.2497
 1169PW       W 8441   9.403  10.905  11.749 -0.4252  0.2144  0.0968
 1169PW      WP 8442   9.481  11.004  11.688 -0.4376 -0.0748 -0.4157
 1169PW      WM 8443   9.461  10.820  11.844  0.2562  0.3448 -0.1740
 1170PW       W 8444   8.498   6.241  10.181 -0.2973 -0.9279 -0.0188
 1170PW      WP 8445   8.445   6.269  10.307 -0.0482  0.7301 -0.1611
 1170PW      WM 8446   8.552   6.164  10.077  0.5530  0.1852 -0.5169
 1171PW       W 8447   6.364   5.983  11.511 -0.4040 -0.0395  0.4270
 1171PW      WP 8448   6.365   6.093  11.425  0.0434 -0.1805  0.2347
 1171PW      WM 8449   6.396   5.878  11.423  0.0675  0.3530  0.1039
 1172PW       W 8450   2.243  10.822  11.217  0.0698 -0.2391  0.0817
 1172PW      WP 8451   2.122  10.787  11.279 -0.0105 -0.0690  0.0239
 1172PW      WM 8452   2.381  10.844  11.223  0.0668 -0.2798  0.5170
 1173PW       W 8453   6.165   0.956  12.009 -0.5009 -0.1720 -0.3697
 1173PW      WP 8454   6.189   1.093  11.992  0.0299 -0.1664  0.2254
 1173PW      WM 8455   6.083   0.874  12.087 -0.1556 -0.3967 -0.2295
 1174PW       W 8456   3.537   1.068  11.949  0.0077 -0.6610  0.2259
 1174PW      WP 8457   3.536   1.052  12.088 -0.1208 -0.0436  0.3109
 1174PW      WM 8458   3.672   1.033  11.941  0.2081  0.0139  0.3570
 1175PW       W 8459  12.157   8.131   0.240 -0.2670 -0.0989 -0.0875
 1175PW      WP 8460  12.039   8.193   0.281  0.0907  0.1629  0.6283
 1175PW      WM 8461  12.146   8.010   0.170  0.5854 -0.5902  0.5292
 1176PW       W 8462   3.111  11.988  13.191  0.0882  0.1103 -0.3821
 1176PW      WP 8463   3.005  11.899  13.179 -0.0558  0.2899 -0.4772
 1176PW      WM 8464   3.123  12.087  13.289  0.2191 -0.6769  0.4605
 1177PW       W 8465   7.093   6.578  13.430  0.1892  0.3483  0.0866
 1177PW      WP 8466   7.067   6.523  13.304  0.1422 -0.1017  0.2820
 1177PW      WM 8467   7.157   6.666  13.342  0.4006  0.1517  0.0398
 1178PW       W 8468   8.168   3.434  12.593 -0.2022 -0.2391 -0.3969
 1178PW      WP 8469   8.160   3.324  12.506  0.0655 -0.5786 -0.0086
 1178PW      WM 8470   8.058   3.502  12.648 -0.0873 -0.0220 -0.4304
 1179PW       W 8471   2.194  10.122   2.664 -0.0538  0.3118  0.3738
 1179PW      WP 8472   2.096  10.036   2.715  0.0966 -0.2673 -0.2558
 1179PW      WM 8473   2.296  10.130   2.569 -0.5802 -0.3712 -0.3081
 1180PW       W 8474   4.397   5.746  12.602  0.2052 -0.0908  0.1222
 1180PW      WP 8475   4.504   5.744  12.692  0.1774  0.0065  0.1583
 1180PW      WM 8476   4.335   5.654  12.517 -0.0037  0.0289  0.1415
 1181PW       W 8477  10.442   5.509   1.112  0.1648 -0.2264 -0.2571
 1181PW      WP 8478  10.346   5.409   1.124 -0.0228 -0.0610 -0.3593
 1181PW      WM 8479  10.526   5.546   1.006 -0.1129  0.1525 -0.3536
 1182PW       W 8480  12.008   9.356   0.205 -0.3957 -0.1969  0.1737
 1182PW      WP 8481  12.059   9.248   0.132  0.1341  0.1262  0.0372
 1182PW      WM 8482  11.926   9.414   0.107  0.0308  0.4769  0.1827
 1183PW       W 8483   0.353   4.095  11.659  0.1889 -0.3642 -0.4627
 1183PW      WP 8484   0.436   4.094  11.772 -0.1459 -0.0665 -0.2033
 1183PW      WM 8485   0.312   4.005  11.758  0.4846  0.0656  0.0806
 1184PW       W 8486   1.874   5.394  10.164  0.0016  0.0065  0.0729
 1184PW      WP 8487   1.952   5.303  10.092 -0.1205  0.1596 -0.2665
 1184PW      WM 8488   1.995   5.461  10.188  0.1207 -0.3439  0.5219
 1185PW       W 8489   6.658   5.782   1.357 -0.0385 -0.3766  0.4731
 1185PW      WP 8490   6.593   5.842   1.466  0.2610  0.0061  0.4518
 1185PW      WM 8491   6.743   5.772   1.246 -0.1839 -0.6137  0.3791
 1186PW       W 8492  11.335   7.965   1.215 -0.3080 -0.1346  0.2086
 1186PW      WP 8493  11.332   7.936   1.078 -0.0204 -0.1143  0.1951
 1186PW      WM 8494  11.220   8.039   1.248 -0.2204  0.0026  0.2114
 1187PW       W 8495   4.498   9.675   4.742  0.1644  0.1638 -0.0557
 1187PW      WP 8496   4.369   9.701   4.696  0.1051  0.1587  0.1083
 1187PW      WM 8497   4.605   9.632   4.661  0.2563  0.2003  0.0449
 1188PW       W 8498   6.061   3.108   0.549  0.2128 -0.2329  0.0326
 1188PW      WP 8499   6.197   3.125   0.520  0.2184 -0.3472 -0.0092
 1188PW      WM 8500   6.036   2.978   0.593  0.1463 -0.2126  0.0543
 1189PW       W 8501   8.289   8.246   0.323  0.0856 -0.0442  0.0683
 1189PW      WP 8502   8.198   8.350   0.303  0.3977  0.1569 -0.4042
 1189PW      WM 8503   8.217   8.127   0.311 -0.0241  0.0355 -0.0839
 1190PW       W 8504   6.685  10.576   2.830 -0.0031 -0.0872  0.2278
 1190PW      WP 8505   6.724  10.683   2.749  0.2083 -0.2840  0.0648
 1190PW      WM 8506   6.684  10.446   2.882  0.3664 -0.0783  0.2704
 1191PW       W 8507  10.509  11.097  10.770  0.0783 -0.1706  0.2135
 1191PW      WP 8508  10.497  10.969  10.825  0.6205 -0.0761  0.5941
 1191PW      WM 8509  10.420  11.185  10.831 -0.1647  0.1641 -0.5569
 1192PW       W 8510   8.242   2.461   8.699  0.1037  0.3126  0.2156
 1192PW      WP 8511   8.320   2.410   8.594 -0.1705  0.1775  0.0733
 1192PW      WM 8512   8.141   2.540   8.642  0.0777  0.4633  0.4629
 1193PW       W 8513   0.197   3.690  11.928 -0.1219  0.1486 -0.0864
 1193PW      WP 8514   0.268   3.800  11.879  0.2909  0.0034  0.1596
 1193PW      WM 8515   0.091   3.774  11.891 -0.2414  0.0370 -0.0012
 1194PW       W 8516   2.844  10.462   2.025  0.3721  0.0993 -0.4157
 1194PW      WP 8517   2.944  10.423   2.116 -0.1862 -0.3691  0.0362
 1194PW      WM 8518   2.838  10.530   1.903 -0.4998  0.5492 -0.1641
 1195PW       W 8519   9.062   8.008  10.032 -0.4436  0.0962 -0.1307
 1195PW      WP 8520   9.153   8.011  10.139 -0.0801 -0.3809 -0.4114
 1195PW      WM 8521   9.073   8.129   9.962 -0.1791  0.3005  0.2401
 1196PW       W 8522   4.133   9.231   0.361 -0.2196 -0.0753 -0.0272
 1196PW      WP 8523   4.210   9.238   0.244  0.1833 -0.1748  0.2254
 1196PW      WM 8524   4.088   9.333   0.276  0.0780 -0.2594 -0.4260
 1197PW       W 8525   1.921   8.912   0.909 -0.5389 -0.2684  0.6970
 1197PW      WP 8526   2.018   8.956   1.000  0.0970  0.0558 -0.0758
 1197PW      WM 8527   1.957   8.806   0.825 -0.2603  0.5570 -0.3160
 1198PW       W 8528   7.786   6.590   9.712  0.1456 -0.2624 -0.2587
 1198PW      WP 8529   7.659   6.572   9.658  0.1334 -0.2323 -0.2404
 1198PW      WM 8530   7.650   6.612   9.689  0.0501  0.1619  0.5162
 1199PW       W 8531   6.824   1.780   4.025 -0.5110 -0.0136 -0.4972
 1199PW      WP 8532   6.815   1.686   4.129 -0.0289  0.2743 -0.1763
 1199PW      WM 8533   6.822   1.685   3.922  0.3119 -0.3822 -0.2170
 1200PW       W 8534  10.309   7.269  11.374 -0.0544  0.0820  0.0953
 1200PW      WP 8535  10.289   7.370  11.279 -0.5457 -0.1278 -0.0377
 1200PW      WM 8536  10.437   7.281  11.317 -0.2012  0.7508 -0.1388
 1201PW       W 8537   5.703   7.909  13.060  0.2052  0.5033  0.0926
 1201PW      WP 8538   5.769   7.939  12.940  0.0255  0.2954 -0.0624
 1201PW      WM 8539   5.625   7.926  13.174  0.0533 -0.7170  0.2397
 1202PW       W 8540   6.687   7.812   5.117  0.1374 -0.0248 -0.1511
 1202PW      WP 8541   6.686   7.927   5.195  0.2177 -0.2587  0.2066
 1202PW      WM 8542   6.557   7.794   5.066 -0.0486  0.4087  0.1442
 1203PW       W 8543  11.443  10.668  10.807  0.0398  0.6078 -0.1741
 1203PW      WP 8544  11.317  10.648  10.749  0.1245  0.0729 -0.2017
 1203PW      WM 8545  11.441  10.632  10.942 -0.1216 -0.2797 -0.3833
 1204PW       W 8546   2.547   0.710   5.265  0.3627  0.2253 -0.0554
 1204PW      WP 8547   2.520   0.573   5.256 -0.4301  0.3775 -0.3591
 1204PW      WM 8548   2.422   0.764   5.236  0.2254  0.3129  0.6227
 1205PW       W 8549   7.021  10.629   4.717  0.0062  0.0418 -0.2374
 1205PW      WP 8550   6.977  10.754   4.761  0.1290 -0.0840  0.2721
 1205PW      WM 8551   6.978  10.602   4.587  0.2545 -0.2134 -0.2709
 1206PW       W 8552   3.526   2.611   2.997 -0.0582 -0.0071  0.3438
 1206PW      WP 8553   3.516   2.494   2.921 -0.0097  0.0947  0.1801
 1206PW      WM 8554   3.484   2.660   3.122 -0.2182  0.0840  0.2560
 1207PW       W 8555  10.914   8.383   8.705  0.1920 -0.2583 -0.0533
 1207PW      WP 8556  11.023   8.447   8.765  0.2041 -0.0704 -0.2673
 1207PW      WM 8557  10.871   8.265   8.767 -0.2597 -0.2304 -0.2904
 1208PW       W 8558   1.489   7.789  13.158  0.0605 -0.0930 -0.1002
 1208PW      WP 8559   1.412   7.772  13.042 -0.1639  0.0705  0.0211
 1208PW      WM 8560   1.615   7.763  13.102  0.1556  0.2866 -0.0760
 1209PW       W 8561   3.625   3.534  11.504  0.1768 -0.5540  0.5001
 1209PW      WP 8562   3.674   3.406  11.477  0.0883 -0.4764 -0.1112
 1209PW      WM 8563   3.646   3.597  11.627 -0.0187 -0.1965  0.3569
 1210PW       W 8564  10.445   4.173   0.259 -0.4342  0.2601 -0.3963
 1210PW      WP 8565  10.401   4.045   0.225  0.1160 -0.0999  0.1517
 1210PW      WM 8566  10.340   4.204   0.346 -0.0418  0.0986  0.1687
 1211PW       W 8567   8.528   4.252   3.057 -0.2753  0.0852  0.1122
 1211PW      WP 8568   8.431   4.177   2.989 -0.0439 -0.3348  0.2313
 1211PW      WM 8569   8.431   4.351   3.075 -0.2648  0.1378 -0.1038
 1212PW       W 8570   7.435   0.745   8.599  0.0615 -0.1755  0.2973
 1212PW      WP 8571   7.467   0.691   8.474 -0.2493  0.1119  0.0863
 1212PW      WM 8572   7.484   0.874   8.578  0.1047 -0.2699 -0.2502
 1213PW       W 8573   4.724   7.993   4.580  0.3244  0.2891 -0.0739
 1213PW      WP 8574   4.644   8.107   4.569 -0.3869 -0.1431  0.2731
 1213PW      WM 8575   4.715   7.862   4.533  0.0366  0.2111  0.1859
 1214PW       W 8576   2.209   0.127   9.022  0.0602 -0.1007  0.4142
 1214PW      WP 8577   2.328   0.056   9.038  0.2528  0.0108 -0.3209
 1214PW      WM 8578   2.178   0.172   8.893 -0.1854 -0.1946  0.4370
 1215PW       W 8579   1.415   3.289   2.785  0.1033 -0.3181  0.1050
 1215PW      WP 8580   1.471   3.258   2.909  0.6324  0.1717  0.0087
 1215PW      WM 8581   1.299   3.267   2.860 -0.0841 -0.1690 -0.1340
 1216PW       W 8582   6.019   3.347   3.913  0.1295 -0.3994 -0.0979
 1216PW      WP 8583   5.965   3.392   3.791  0.0163 -0.0580  0.0718
 1216PW      WM 8584   6.150   3.397   3.906  0.0347 -0.0953  0.1980
 1217PW       W 8585   2.399   5.812  12.108 -0.1261 -0.2835 -0.2077
 1217PW      WP 8586   2.348   5.701  12.176  0.1048 -0.3552 -0.1494
 1217PW      WM 8587   2.475   5.896  12.191  0.1845 -0.5360 -0.2287
 1218PW       W 8588  11.762   6.913  11.856  0.1771  0.1071  0.0495
 1218PW      WP 8589  11.837   6.945  11.970  0.0141  0.1809  0.1379
 1218PW      WM 8590  11.677   6.804  11.877  0.0543  0.2304  0.2071
 1219PW       W 8591  11.698  12.118  10.041  0.0097  0.0529  0.1480
 1219PW      WP 8592  11.837  12.109  10.034 -0.0214 -0.4043 -0.0252
 1219PW      WM 8593  11.632  12.073  10.156 -0.0028  0.0892  0.1548
 1220PW       W 8594   3.221   2.903   2.712 -0.1430  0.1117  0.0876
 1220PW      WP 8595   3.289   2.837   2.609 -0.1596 -0.1411  0.2337
 1220PW      WM 8596   3.291   3.013   2.661 -0.0303 -0.0119 -0.0297
 1221PW       W 8597   3.244   9.616  11.403 -0.3528  0.1107  0.1939
 1221PW      WP 8598   3.180   9.596  11.280 -0.3043 -0.0160  0.1889
 1221PW      WM 8599   3.326   9.720  11.355  0.2076 -0.0567  0.7206
 1222PW       W 8600   3.418   3.756  11.100 -0.0513  0.3489  0.1129
 1222PW      WP 8601   3.446   3.878  11.038 -0.3404  0.1610 -0.4145
 1222PW      WM 8602   3.416   3.824  11.223  0.0193  0.0665  0.2753
 1223PW       W 8603   5.953   9.952   3.920 -0.2768 -0.1971 -0.2066
 1223PW      WP 8604   5.883   9.844   3.865 -0.1367 -0.3664 -0.0555
 1223PW      WM 8605   5.953  10.073   3.849  0.0678 -0.2192 -0.2519
 1224PW       W 8606  11.058   3.105   9.361  0.0205  0.3701  0.6052
 1224PW      WP 8607  11.030   2.969   9.348  0.1938  0.3822 -0.0360
 1224PW      WM 8608  11.178   3.175   9.344  0.1436  0.0413 -0.0366
 1225PW       W 8609   4.067   5.873   1.566 -0.2677  0.2338  0.2078
 1225PW      WP 8610   4.018   5.922   1.444  0.3282  0.2898 -0.0276
 1225PW      WM 8611   4.194   5.858   1.508 -0.1589 -0.1566  0.5304
 1226PW       W 8612   5.140  10.035   0.827  0.1098 -0.1093  0.1259
 1226PW      WP 8613   5.036  10.097   0.898 -0.2901  0.0446 -0.5556
 1226PW      WM 8614   5.177  10.071   0.697  0.0962 -0.6232 -0.0308
 1227PW       W 8615  12.109   1.733   4.540  0.0730 -0.2054  0.0201
 1227PW      WP 8616  12.004   1.758   4.629 -0.0375  0.2112 -0.2136
 1227PW      WM 8617  12.115   1.620   4.457  0.0208 -0.3669  0.2322
 1228PW       W 8618   6.703   7.246   1.319  0.1883 -0.1418 -0.2899
 1228PW      WP 8619   6.828   7.306   1.338  0.2599 -0.2570 -0.3916
 1228PW      WM 8620   6.586   7.299   1.376  0.1742 -0.5654  0.1024
 1229PW       W 8621   7.901  11.201   4.825  0.1866  0.1875 -0.1954
 1229PW      WP 8622   8.028  11.169   4.874  0.1810  0.1010 -0.2347
 1229PW      WM 8623   7.965  11.105   4.746 -0.0876  0.0007 -0.2008
 1230PW       W 8624   7.041  11.619  10.052  0.0066  0.1935 -0.4048
 1230PW      WP 8625   6.918  11.553  10.037 -0.1248  0.0828  0.7012
 1230PW      WM 8626   7.081  11.500   9.989 -0.1153  0.2232 -0.5421
 1231PW       W 8627   7.657   0.311   0.230 -0.1741 -0.0454 -0.1422
 1231PW      WP 8628   7.607   0.435   0.270 -0.4987 -0.1744 -0.1350
 1231PW      WM 8629   7.761   0.311   0.136 -0.0066  0.1242  0.0400
 1232PW       W 8630   3.082   8.665  10.438 -0.1564  0.0345  0.1632
 1232PW      WP 8631   3.086   8.735  10.559  0.1320  0.0656  0.1377
 1232PW      WM 8632   3.210   8.618  10.468 -0.1751 -0.3120 -0.2452
 1233PW       W 8633   8.985   8.397   4.773 -0.3034 -0.2962 -0.0294
 1233PW      WP 8634   9.073   8.320   4.849  0.1716 -0.2770 -0.5246
 1233PW      WM 8635   8.945   8.429   4.903 -0.5096  0.0411 -0.1689
 1234PW       W 8636   1.567  12.027  11.621 -0.0290  0.0220 -0.0184
 1234PW      WP 8637   1.638  11.970  11.728 -0.1898 -0.5022 -0.1746
 1234PW      WM 8638   1.563  11.900  11.561 -0.3250 -0.2608  0.5640
 1235PW       W 8639   2.643   9.019   1.643 -0.3590 -0.5850  0.0207
 1235PW      WP 8640   2.629   9.151   1.600  0.0071 -0.5261  0.0676
 1235PW      WM 8641   2.682   8.916   1.730 -0.0659 -0.3290  0.2041
 1236PW       W 8642  11.218   4.289   0.399  0.5893 -0.1906 -0.5960
 1236PW      WP 8643  11.214   4.395   0.307 -0.5933 -0.0042 -0.4031
 1236PW      WM 8644  11.106   4.235   0.336  0.3240 -0.0851 -0.2318
 1237PW       W 8645   8.740   9.418   0.868 -0.1041  0.1233  0.2905
 1237PW      WP 8646   8.619   9.376   0.810  0.3551 -0.8009 -0.1107
 1237PW      WM 8647   8.879   9.403   0.875 -0.1502 -0.4278  0.2690
 1238PW       W 8648   4.948   3.648   2.231  0.0331 -0.2310 -0.0461
 1238PW      WP 8649   4.899   3.576   2.340 -0.0791 -0.0503  0.0252
 1238PW      WM 8650   4.932   3.621   2.094 -0.0791  0.4505 -0.1849
 1239PW       W 8651  11.664   5.426   4.037  0.3390 -0.4802  0.0502
 1239PW      WP 8652  11.683   5.299   3.982  0.7525 -0.3752 -0.0669
 1239PW      WM 8653  11.664   5.425   3.897  0.2639  0.0861  0.0382
 1240PW       W 8654   6.227   5.585   1.338  0.2564 -0.1640  0.0345
 1240PW      WP 8655   6.269   5.551   1.467  0.2227  0.1740  0.1379
 1240PW      WM 8656   6.330   5.612   1.246  0.1946 -0.1077 -0.0181
 1241PW       W 8657   9.633   2.561   3.830  0.5208 -0.0943  0.0703
 1241PW      WP 8658   9.724   2.658   3.787  0.2631  0.1654  0.0879
 1241PW      WM 8659   9.576   2.601   3.709  0.1444 -0.1392  0.2252
 1242PW       W 8660  10.623   8.432   9.975 -0.1383 -0.4477  0.4454
 1242PW      WP 8661  10.630   8.554  10.043 -0.2120 -0.0192 -0.2655
 1242PW      WM 8662  10.709   8.328  10.013 -0.2877 -0.6915  0.1384
 1243PW       W 8663  10.601   9.992  10.063  0.3061  0.0029 -0.5379
 1243PW      WP 8664  10.631   9.992   9.926  0.3157  0.0673 -0.5359
 1243PW      WM 8665  10.560   9.859  10.079  0.1889  0.0537 -0.4095
 1244PW       W 8666   5.299   7.057   9.600  0.4236  0.0215 -0.0648
 1244PW      WP 8667   5.408   7.065   9.512  0.5509 -0.5495  0.0266
 1244PW      WM 8668   5.216   7.137   9.521 -0.3964 -0.2080  0.4981
 1245PW       W 8669   0.084   6.875  10.907 -0.2428 -0.0169 -0.1109
 1245PW      WP 8670   0.020   6.815  10.798  0.3604 -0.0770 -0.4572
 1245PW      WM 8671   0.149   6.987  10.854 -0.3267 -0.1998 -0.6327
 1246PW       W 8672   0.691   1.398   9.002  0.0608  0.3713  0.1886
 1246PW      WP 8673   0.621   1.518   9.019  0.0047  0.3395  0.1838
 1246PW      WM 8674   0.820   1.369   8.956 -0.0137  0.1020  0.1384
 1247PW       W 8675   3.200   3.890  11.579 -0.3336  0.2279  0.1165
 1247PW      WP 8676   3.120   3.939  11.476 -0.1033  0.3883  0.0099
 1247PW      WM 8677   3.287   3.938  11.679  0.4480 -0.9161  0.0847
 1248PW       W 8678   1.091   6.961   9.088  0.3471  0.2313 -0.0103
 1248PW      WP 8679   1.049   7.049   9.189  0.6106  0.5026 -0.1272
 1248PW      WM 8680   1.133   7.060   8.999 -0.0859  0.2971 -0.1546
 1249PW       W 8681   8.643   9.795   8.961 -0.0089  0.0200  0.0783
 1249PW      WP 8682   8.511   9.843   8.962  0.0689  0.2576 -0.1668
 1249PW      WM 8683   8.637   9.928   8.915 -0.2777  0.0552  0.2055
 1250PW       W 8684   3.453   9.148   1.918  0.0973  0.1782  0.2316
 1250PW      WP 8685   3.544   9.050   1.960  0.3451  0.2589 -0.0978
 1250PW      WM 8686   3.526   9.197   2.028  0.2642 -0.1098  0.2534
 1251PW       W 8687   7.115   8.000   2.141 -0.0385 -0.5639 -0.0334
 1251PW      WP 8688   7.000   8.016   2.219  0.0293 -0.3189  0.0202
 1251PW      WM 8689   7.124   8.043   2.008 -0.5774  0.1031  0.1143
 1252PW       W 8690   1.882   2.530  10.238 -0.4478 -0.5509 -0.1498
 1252PW      WP 8691   1.947   2.507  10.360  0.3045  0.4228 -0.3029
 1252PW      WM 8692   1.903   2.649  10.309 -0.0561 -0.2716 -0.6951
 1253PW       W 8693   1.257   1.194   0.981 -0.2479 -0.2077 -0.0756
 1253PW      WP 8694   1.316   1.301   0.913 -0.2976 -0.1549 -0.0361
 1253PW      WM 8695   1.234   1.291   1.079  0.0764  0.5065 -0.6671
 1254PW       W 8696   0.486   8.633   8.370 -0.3473 -0.2886 -0.0684
 1254PW      WP 8697   0.611   8.569   8.380 -0.4388 -0.4051  0.6348
 1254PW      WM 8698   0.594   8.716   8.336 -0.4094 -0.2201 -0.0988
 1255PW       W 8699  11.959  12.109  10.658 -0.1835  0.0830  0.1360
 1255PW      WP 8700  12.048  12.183  10.736 -0.1252  0.1632 -0.0053
 1255PW      WM 8701  11.970  12.069  10.792 -0.4957 -0.3632  0.0401
 1256PW       W 8702   2.292   2.488   3.111  0.0625  0.2143  0.2309
 1256PW      WP 8703   2.345   2.366   3.156 -0.2801 -0.1352 -0.2518
 1256PW      WM 8704   2.273   2.555   3.232  0.3885  0.0545  0.3758
 1257PW       W 8705   1.040   6.097   9.184 -0.2436 -0.2890  0.1887
 1257PW      WP 8706   1.163   6.032   9.176 -0.2357 -0.2263 -0.3330
 1257PW      WM 8707   1.071   6.000   9.089  0.0406  0.0971 -0.1315
 1258PW       W 8708   6.168   1.712   4.495 -0.0885  0.2290 -0.2095
 1258PW      WP 8709   6.221   1.589   4.454  0.1113  0.3526 -0.3311
 1258PW      WM 8710   6.044   1.688   4.555  0.1532  0.0386  0.2404
 1259PW       W 8711   7.425   7.919   1.375 -0.0394 -0.0021  0.0031
 1259PW      WP 8712   7.452   7.859   1.252 -0.1040 -0.3312  0.1440
 1259PW      WM 8713   7.542   7.990   1.345 -0.1756  0.2621  0.0785
 1260PW       W 8714   9.333  11.429  10.548 -0.1040  0.0488 -0.1477
 1260PW      WP 8715   9.371  11.335  10.645 -0.4536  0.5100  0.4662
 1260PW      WM 8716   9.380  11.559  10.569 -0.3527  0.1497 -0.1964
 1261PW       W 8717   2.305   5.102   3.590  0.5352  0.0746 -0.1029
 1261PW      WP 8718   2.252   5.226   3.626  0.1366 -0.1023 -0.0592
 1261PW      WM 8719   2.336   4.989   3.666 -0.1614 -0.1361 -0.1055
 1262PW       W 8720  10.599   4.734  12.753 -0.2269  0.0642  0.1745
 1262PW      WP 8721  10.569   4.638  12.656  0.1474  0.0880  0.0275
 1262PW      WM 8722  10.720   4.794  12.718 -0.4388  0.2745 -0.2261
 1263PW       W 8723   8.087   8.943  12.697 -0.3344  0.0193 -0.1430
 1263PW      WP 8724   8.108   8.808  12.726  0.1837  0.0538 -0.3013
 1263PW      WM 8725   8.198   9.026  12.714 -0.1149 -0.3118  0.0954
 1264PW       W 8726   3.131   4.135   8.976  0.0880  0.1811 -0.0887
 1264PW      WP 8727   3.161   4.135   8.839 -0.2020  0.6151 -0.1635
 1264PW      WM 8728   3.009   4.133   9.044  0.3646  0.1706  0.4296
 1265PW       W 8729   1.438   3.195  10.639  0.2402  0.1537 -0.2137
 1265PW      WP 8730   1.457   3.317  10.573  0.2680  0.2455 -0.0398
 1265PW      WM 8731   1.301   3.169  10.656  0.2972 -0.0907 -0.1060
 1266PW       W 8732   9.524   3.690  10.879 -0.3034  0.0189  0.1578
 1266PW      WP 8733   9.608   3.608  10.803 -0.1668  0.1441  0.1719
 1266PW      WM 8734   9.590   3.813  10.881 -0.5826  0.1748  0.0365
 1267PW       W 8735  10.908   1.151   2.177  0.2280 -0.1818  0.1196
 1267PW      WP 8736  10.870   1.086   2.294 -0.0316 -0.4522 -0.1065
 1267PW      WM 8737  10.995   1.259   2.158  0.2193 -0.2190 -0.1668
 1268PW       W 8738  11.487   8.622  11.577  0.1343  0.0231 -0.5208
 1268PW      WP 8739  11.493   8.537  11.687  0.2631  0.1527 -0.4256
 1268PW      WM 8740  11.489   8.741  11.651  0.1412  0.0168 -0.5110
 1269PW       W 8741   4.821   9.122   4.352 -0.5256 -0.0143  0.2481
 1269PW      WP 8742   4.895   9.006   4.323  0.0168  0.4128 -0.1939
 1269PW      WM 8743   4.889   9.167   4.465  0.0443 -0.2721  0.0289
 1270PW       W 8744   6.754   5.797  11.870  0.2171  0.6016  0.3312
 1270PW      WP 8745   6.811   5.791  11.742  0.4937  0.0111  0.4635
 1270PW      WM 8746   6.724   5.682  11.945  0.4804  0.3546  0.0728
 1271PW       W 8747   4.112   0.488   8.770 -0.2218  0.3328 -0.1918
 1271PW      WP 8748   3.984   0.519   8.723 -0.2908 -0.2918 -0.4757
 1271PW      WM 8749   4.181   0.396   8.851  0.3017  0.5928 -0.3162
 1272PW       W 8750   6.350   3.941   1.357  0.0403  0.2945 -0.0254
 1272PW      WP 8751   6.426   3.931   1.474  0.2822  0.4685 -0.1616
 1272PW      WM 8752   6.372   4.046   1.267 -0.6230 -0.0050 -0.5789
 1273PW       W 8753   5.100   3.614   4.827  0.1788 -0.0054 -0.3806
 1273PW      WP 8754   4.973   3.564   4.859  0.2117  0.0341 -0.1793
 1273PW      WM 8755   5.137   3.538   4.716  0.3414 -0.2056 -0.1943
 1274PW       W 8756   5.788   3.625   3.094  0.2701 -0.2283 -0.3409
 1274PW      WP 8757   5.664   3.585   3.043  0.2312  0.2908 -0.6944
 1274PW      WM 8758   5.804   3.491   3.055  0.2351 -0.2195 -0.3860
 1275PW       W 8759   0.937  10.076  10.421 -0.3070 -0.0682 -0.0728
 1275PW      WP 8760   0.909  10.017  10.297 -0.0154 -0.3835  0.0031
 1275PW      WM 8761   1.056  10.003  10.423 -0.0792  0.2194 -0.8940
 1276PW       W 8762   1.637   3.716   8.594 -0.0314  0.1986 -0.1134
 1276PW      WP 8763   1.764   3.685   8.543 -0.0932 -0.0530 -0.1203
 1276PW      WM 8764   1.623   3.852   8.563  0.2009  0.1955 -0.2459
 1277PW       W 8765   7.568   5.172   4.721 -0.0569 -0.3520  0.0006
 1277PW      WP 8766   7.615   5.258   4.621  0.0320 -0.3657  0.0306
 1277PW      WM 8767   7.536   5.237   4.841 -0.2768  0.5749 -0.5118
 1278PW       W 8768   3.421   0.167   8.385 -0.2072 -0.1089 -0.0411
 1278PW      WP 8769   3.476   0.257   8.477 -0.2434 -0.1597  0.0308
 1278PW      WM 8770   3.522   0.176   8.288 -0.1636  0.3321  0.0378
 1279PW       W 8771   3.022   1.356  11.836  0.0520  0.0188 -0.0121
 1279PW      WP 8772   3.085   1.353  11.961 -0.1829 -0.0642  0.1097
 1279PW      WM 8773   2.905   1.333  11.910  0.0914 -0.4342 -0.0712
 1280PW       W 8774   9.527   6.925  10.684  0.0929 -0.1899 -0.3047
 1280PW      WP 8775   9.624   6.842  10.742 -0.0725 -0.2531 -0.1126
 1280PW      WM 8776   9.459   7.004  10.777  0.0019  0.0609 -0.5772
 1281PW       W 8777   1.925  10.980   1.743  0.2656 -0.0506  0.3356
 1281PW      WP 8778   1.999  10.937   1.853 -0.4213 -0.2433  0.7522
 1281PW      WM 8779   1.847  11.073   1.812  0.2456 -0.0674  0.3362
 1282PW       W 8780   6.652   9.487   9.085  0.0197 -0.0925 -0.3614
 1282PW      WP 8781   6.714   9.443   9.202 -0.1576  0.0435 -0.2142
 1282PW      WM 8782   6.699   9.567   8.980  0.0224  0.0499 -0.2529
 1283PW       W 8783   9.105   1.494  13.022  0.4899 -0.0819 -0.1037
 1283PW      WP 8784   9.129   1.489  13.160  0.1826  0.5904 -0.0020
 1283PW      WM 8785   9.014   1.502  13.128  0.3704 -0.1004 -0.2030
 1284PW       W 8786   1.396  11.756   4.340 -0.2768 -0.2661  0.0909
 1284PW      WP 8787   1.519  11.697   4.370  0.0127  0.3400  0.1762
 1284PW      WM 8788   1.365  11.637   4.408 -0.1734 -0.1574  0.3347
 1285PW       W 8789   9.199   1.938  13.008  0.0983 -0.4028 -0.1457
 1285PW      WP 8790   9.179   1.867  12.888 -0.0209 -0.2352 -0.2265
 1285PW      WM 8791   9.339   1.951  12.997  0.0586  0.0633 -0.2169
 1286PW       W 8792   7.168  11.295   1.025  0.4016  0.0609  0.0957
 1286PW      WP 8793   7.124  11.277   0.894 -0.2640  0.0938  0.2985
 1286PW      WM 8794   7.141  11.170   1.083 -0.4139 -0.0263 -0.3998
 1287PW       W 8795   7.710   5.684   1.217 -0.2761 -0.1120  0.1673
 1287PW      WP 8796   7.720   5.816   1.169  0.4110 -0.0941  0.3189
 1287PW      WM 8797   7.686   5.596   1.323 -0.2966  0.0699  0.3185
 1288PW       W 8798   3.218   4.780   4.943  0.2401  0.3068  0.1467
 1288PW      WP 8799   3.193   4.727   5.070  0.1316 -0.6276 -0.2307
 1288PW      WM 8800   3.183   4.900   4.878 -0.3901 -0.0160 -0.1600
 1289PW       W 8801   6.939   8.031  10.821 -0.0016 -0.0120  0.2755
 1289PW      WP 8802   6.988   8.033  10.690 -0.3181 -0.2836  0.1476
 1289PW      WM 8803   6.840   8.111  10.765 -0.1078 -0.4050 -0.1255
 1290PW       W 8804   5.439   0.317   5.277  0.2907  0.1899  0.1605
 1290PW      WP 8805   5.385   0.414   5.191 -0.0577 -0.1082  0.0275
 1290PW      WM 8806   5.299   0.312   5.280  0.3022 -0.3190  0.5442
 1291PW       W 8807  10.055   8.169   8.336 -0.1708 -0.0247  0.1991
 1291PW      WP 8808  10.188   8.162   8.293 -0.3527  0.0604 -0.4215
 1291PW      WM 8809   9.931   8.108   8.363 -0.2907  0.0196 -0.2194
 1292PW       W 8810   5.424   0.256   9.126 -0.3534 -0.0276  0.5113
 1292PW      WP 8811   5.289   0.222   9.118 -0.3695  0.1202 -0.6208
 1292PW      WM 8812   5.549   0.197   9.103 -0.4220 -0.0890  0.2887
 1293PW       W 8813  10.590   8.556   3.540 -0.0318  0.7603 -0.2167
 1293PW      WP 8814  10.458   8.509   3.530  0.0835  0.4365 -0.2951
 1293PW      WM 8815  10.561   8.629   3.656 -0.0415  0.3769  0.0313
 1294PW       W 8816  10.861   3.930  13.095  0.1498 -0.2436  0.1715
 1294PW      WP 8817  10.909   4.060  13.116  0.0513 -0.2765  0.6590
 1294PW      WM 8818  10.776   3.882  12.995  0.2116 -0.1916  0.0935
 1295PW       W 8819   8.075   6.806   8.391 -0.0498 -0.1373 -0.3010
 1295PW      WP 8820   8.067   6.893   8.501  0.2901 -0.3450 -0.1019
 1295PW      WM 8821   8.147   6.696   8.439 -0.2674 -0.1538  0.0058
 1296PW       W 8822   6.861   5.772  10.897  0.3156 -0.4472 -0.0935
 1296PW      WP 8823   6.857   5.903  10.948 -0.2593 -0.1923 -0.7225
 1296PW      WM 8824   6.914   5.763  10.768  0.0058  0.0894 -0.2756
 1297PW       W 8825   6.584   1.617  10.177 -0.0289 -0.0181 -0.1956
 1297PW      WP 8826   6.587   1.560  10.304  0.1409  0.2926 -0.0534
 1297PW      WM 8827   6.526   1.646  10.301  0.5312  0.1500  0.0427
 1298PW       W 8828   6.144   0.215   2.005 -0.0287  0.0332  0.0981
 1298PW      WP 8829   6.250   0.123   2.006  0.2339  0.3198 -0.1724
 1298PW      WM 8830   6.235   0.305   2.062  0.1227 -0.0339 -0.0332
 1299PW       W 8831   7.563   8.264   4.512 -0.1134  0.3522  0.2286
 1299PW      WP 8832   7.690   8.249   4.456  0.0558 -0.0912  0.6972
 1299PW      WM 8833   7.564   8.345   4.626 -0.5405  0.3694  0.2281
 1300PW       W 8834   0.923   3.388  11.764 -0.3164 -0.0018 -0.1286
 1300PW      WP 8835   1.002   3.273  11.772 -0.1988  0.0690 -0.2519
 1300PW      WM 8836   0.971   3.507  11.820 -0.3132 -0.0154 -0.1024
 1301PW       W 8837  10.294   1.173   4.158  0.3641 -0.1992 -0.3850
 1301PW      WP 8838  10.262   1.214   4.028  0.0623 -0.0386 -0.2658
 1301PW      WM 8839  10.353   1.262   4.248  0.2177 -0.3881 -0.0968
 1302PW       W 8840   1.595   5.410   1.063 -0.2261 -0.0441  0.0552
 1302PW      WP 8841   1.579   5.412   0.924 -0.0785 -0.3051  0.0317
 1302PW      WM 8842   1.566   5.288   1.127  0.1947 -0.0229  0.3061
 1303PW       W 8843   3.557   0.555   2.957 -0.0008  0.0672  0.2877
 1303PW      WP 8844   3.574   0.428   3.014  0.5089  0.2560  0.5931
 1303PW      WM 8845   3.660   0.582   2.866 -0.1422  0.1634  0.1534
 1304PW       W 8846   8.393   1.327   3.262  0.2807 -0.6433  0.1676
 1304PW      WP 8847   8.322   1.256   3.360 -0.1840  0.2556  0.5417
 1304PW      WM 8848   8.464   1.379   3.371 -0.2327  0.3461  0.0899
 1305PW       W 8849   9.777   3.648   0.283 -0.0742  0.3852 -0.5921
 1305PW      WP 8850   9.648   3.602   0.311  0.1220  0.4312  0.6843
 1305PW      WM 8851   9.913   3.666   0.310 -0.1157 -0.1256  0.1110
 1306PW       W 8852   2.931   5.433   1.476 -0.0737  0.0766 -0.3008
 1306PW      WP 8853   2.850   5.373   1.379 -0.0288 -0.2338 -0.1506
 1306PW      WM 8854   2.988   5.308   1.504 -0.3099  0.1002  0.3826
 1307PW       W 8855   6.093   2.500   4.426 -0.1538 -0.1655  0.2006
 1307PW      WP 8856   6.017   2.616   4.414  0.5947  0.3789  0.3934
 1307PW      WM 8857   6.230   2.473   4.411 -0.1066  0.3457 -0.5981
 1308PW       W 8858   1.153   2.434   8.972 -0.0193 -0.0056 -0.1326
 1308PW      WP 8859   1.248   2.331   8.970 -0.5181 -0.4871 -0.1157
 1308PW      WM 8860   1.071   2.535   9.024 -0.1093 -0.2849  0.2831
 1309PW       W 8861  10.651   3.194  12.854  0.2206 -0.1299  0.2477
 1309PW      WP 8862  10.573   3.308  12.878 -0.2865 -0.4016 -0.0233
 1309PW      WM 8863  10.787   3.221  12.833  0.0381  0.4799 -0.3562
 1310PW       W 8864   0.398   3.093   2.428 -0.2641 -0.1308  0.0922
 1310PW      WP 8865   0.392   3.004   2.320 -0.7412  0.1866 -0.1591
 1310PW      WM 8866   0.422   3.169   2.313  0.0464  0.0487  0.2678
 1311PW       W 8867   8.678   1.937   0.380  0.1357  0.4069  0.0829
 1311PW      WP 8868   8.552   1.945   0.319  0.1108 -0.0681  0.0522
 1311PW      WM 8869   8.707   1.864   0.496 -0.1472 -0.1032 -0.1504
 1312PW       W 8870   2.564   7.129   3.093  0.0354 -0.3801 -0.5220
 1312PW      WP 8871   2.508   7.175   3.213  0.2641 -0.0744 -0.5288
 1312PW      WM 8872   2.631   7.225   3.017  0.3645 -0.0621  0.1340
 1313PW       W 8873   7.159   9.866   2.492  0.2553  0.3136 -0.5722
 1313PW      WP 8874   7.196   9.747   2.554  0.2774  0.6828  0.1726
 1313PW      WM 8875   7.139   9.984   2.565  0.3519  0.0124 -0.0374
 1314PW       W 8876  11.427   2.814  11.733  0.0520  0.0343  0.3722
 1314PW      WP 8877  11.330   2.832  11.833  0.3224 -0.0929  0.6653
 1314PW      WM 8878  11.559   2.816  11.687  0.0481 -0.4538  0.3059
 1315PW       W 8879   5.283   2.309   8.843  0.0387 -0.2409  0.0539
 1315PW      WP 8880   5.288   2.179   8.789 -0.0591 -0.1271 -0.2393
 1315PW      WM 8881   5.317   2.442   8.819  0.3929 -0.3362 -0.0016
 1316PW       W 8882   4.121   2.991   4.800  0.1752 -0.3130 -0.1554
 1316PW      WP 8883   4.006   2.949   4.867  0.1621 -0.1273 -0.0573
 1316PW      WM 8884   4.168   2.892   4.713  0.7857 -0.0101 -0.1979
 1317PW       W 8885   7.417   9.437  13.237  0.0834 -0.1699  0.1665
 1317PW      WP 8886   7.439   9.444  13.099  0.2520 -0.2332  0.1892
 1317PW      WM 8887   7.550   9.481  13.233 -0.0359  0.2119 -0.5303
 1318PW       W 8888   5.174   4.890   4.476  0.0175  0.2467 -0.1763
 1318PW      WP 8889   5.197   4.858   4.611  0.1315  0.0888 -0.2310
 1318PW      WM 8890   5.036   4.915   4.473  0.0163  0.2744  0.0073
 1319PW       W 8891   0.909   3.512  13.075 -0.2385  0.6754  0.2612
 1319PW      WP 8892   0.885   3.476  13.208  0.3892  0.1725  0.2609
 1319PW      WM 8893   0.845   3.439  12.975  0.4983  0.5377 -0.1512
 1320PW       W 8894   8.128   3.889   4.492 -0.1161 -0.4143  0.0651
 1320PW      WP 8895   8.060   3.907   4.370 -0.1664  0.1246  0.1597
 1320PW      WM 8896   8.234   3.805   4.456  0.0449 -0.1452 -0.1057
 1321PW       W 8897  11.859   2.415  12.379  0.0594 -0.3350 -0.2521
 1321PW      WP 8898  11.937   2.527  12.347 -0.2623 -0.0783 -0.1572
 1321PW      WM 8899  11.808   2.285  12.374 -0.0987 -0.2781 -0.1523
 1322PW       W 8900   6.688   6.447   1.023  0.2546 -0.0216 -0.1332
 1322PW      WP 8901   6.622   6.352   0.944 -0.1410  0.2735 -0.1739
 1322PW      WM 8902   6.583   6.463   0.933  0.0830 -0.0749  0.0541
 1323PW       W 8903   1.327   7.837  12.731  0.1571 -0.2332 -0.1350
 1323PW      WP 8904   1.275   7.769  12.620  0.0536 -0.2997 -0.0464
 1323PW      WM 8905   1.379   7.831  12.861 -0.7155  0.3093  0.2865
 1324PW       W 8906   5.343  10.260  11.325 -0.1054  0.0764 -0.3902
 1324PW      WP 8907   5.224  10.323  11.289 -0.2742 -0.2558 -0.4244
 1324PW      WM 8908   5.473  10.208  11.338 -0.1493  0.0863  0.2746
 1325PW       W 8909  10.082   7.170   2.418 -0.4128  0.1835  0.6864
 1325PW      WP 8910  10.164   7.059   2.441 -0.0830  0.3104  0.2107
 1325PW      WM 8911  10.002   7.256   2.341 -0.5433 -0.5195 -0.0263
 1326PW       W 8912   5.249   0.566  12.316  0.0941  0.7663  0.1206
 1326PW      WP 8913   5.208   0.644  12.207 -0.2127  0.2968 -0.1185
 1326PW      WM 8914   5.333   0.502  12.407 -0.1045  0.4905  0.1179
 1327PW       W 8915   3.435  11.560   9.905 -0.1700 -0.0958 -0.3787
 1327PW      WP 8916   3.572  11.532   9.895 -0.1095 -0.2177  0.4530
 1327PW      WM 8917   3.333  11.467   9.881 -0.1812 -0.3195  0.4040
 1328PW       W 8918   0.580   7.783  10.032  0.0475 -0.1473 -0.1368
 1328PW      WP 8919   0.712   7.825  10.046  0.0971 -0.3409 -0.0119
 1328PW      WM 8920   0.509   7.904  10.031  0.1170 -0.0983 -0.7023
 1329PW       W 8921  10.500   4.753  10.871  0.1512  0.1011  0.0512
 1329PW      WP 8922  10.468   4.674  10.759  0.3066 -0.7979  0.5917
 1329PW      WM 8923  10.528   4.853  10.777 -0.0597 -0.0687 -0.1992
 1330PW       W 8924   0.335   7.325   0.315  0.2312  0.2678 -0.0778
 1330PW      WP 8925   0.402   7.215   0.371 -0.0694  0.2257  0.2175
 1330PW      WM 8926   0.412   7.277   0.209  0.1504  0.1553 -0.0869
 1331PW       W 8927   0.561   3.664  11.552 -0.0570 -0.0367  0.4701
 1331PW      WP 8928   0.460   3.587  11.493  0.1543 -0.0660  0.1374
 1331PW      WM 8929   0.610   3.720  11.671  0.0562  0.5328  0.1740
 1332PW       W 8930   7.591   0.356   1.728  0.2434 -0.3173  0.0804
 1332PW      WP 8931   7.533   0.284   1.832  0.2278 -0.3047  0.0803
 1332PW      WM 8932   7.522   0.470   1.770 -0.2556 -0.6640  0.2532
 1333PW       W 8933   2.936   7.075   1.898 -0.3713  0.5265 -0.2768
 1333PW      WP 8934   2.798   7.068   1.874 -0.4666 -0.3820  0.3077
 1333PW      WM 8935   2.931   7.151   1.780 -0.1946  0.2581 -0.4615
 1334PW       W 8936   6.211   3.014   9.947  0.1939 -0.0385  0.2890
 1334PW      WP 8937   6.340   3.060   9.917  0.0010  0.4849  0.2105
 1334PW      WM 8938   6.223   2.886   9.891  0.1220 -0.1359  0.4897
 1335PW       W 8939   2.637   3.178   2.904  0.0941  0.0499 -0.0011
 1335PW      WP 8940   2.765   3.221   2.939  0.0825  0.5035 -0.4578
 1335PW      WM 8941   2.739   3.086   2.876 -0.2712 -0.1526 -0.7999
 1336PW       W 8942   5.518   6.410   1.822 -0.0069  0.1191  0.0137
 1336PW      WP 8943   5.389   6.417   1.875 -0.1893  0.2167 -0.4190
 1336PW      WM 8944   5.535   6.359   1.693 -0.5519  0.1124 -0.0693
 1337PW       W 8945   6.183   6.765  13.383  0.1020 -0.0525 -0.1824
 1337PW      WP 8946   6.048   6.737  13.360  0.0455 -0.1741  0.2529
 1337PW      WM 8947   6.189   6.877  13.300  0.0819  0.0992  0.0174
 1338PW       W 8948   0.689   9.098  10.874  0.1227  0.1880 -0.3022
 1338PW      WP 8949   0.641   8.979  10.817 -0.3537  0.2815 -0.1211
 1338PW      WM 8950   0.608   9.187  10.946  0.3086  0.4640 -0.4271
 1339PW       W 8951  10.934   4.532   9.559  0.1375  0.0739  0.0250
 1339PW      WP 8952  10.966   4.610   9.447 -0.4911  0.3669  0.0284
 1339PW      WM 8953  10.820   4.451   9.566  0.0238  0.2388  0.1306
 1340PW       W 8954   1.680   4.733   1.485 -0.0388  0.0974  0.1424
 1340PW      WP 8955   1.762   4.656   1.402 -0.1746 -0.1599  0.2429
 1340PW      WM 8956   1.562   4.804   1.509 -0.0670 -0.0057  0.3106
 1341PW       W 8957   3.274   4.449  11.701  0.3804  0.1050 -0.0305
 1341PW      WP 8958   3.164   4.363  11.703  0.1980  0.3148 -0.4048
 1341PW      WM 8959   3.383   4.370  11.661 -0.0639 -0.1892 -0.7735
 1342PW       W 8960   5.874   7.043  13.023  0.1697  0.4127  0.4551
 1342PW      WP 8961   5.979   7.000  13.105  0.2802 -0.0886  0.0752
 1342PW      WM 8962   5.740   7.007  13.039  0.1846  0.1605  0.0984
 1343PW       W 8963   0.851  11.268   4.766 -0.0245 -0.1714  0.1164
 1343PW      WP 8964   0.721  11.217   4.755  0.0386 -0.2916 -0.1167
 1343PW      WM 8965   0.889  11.389   4.825 -0.2459 -0.1248  0.1662
 1344PW       W 8966   6.228  -0.020   9.997  0.0864  0.1023  0.0414
 1344PW      WP 8967   6.242   0.104   9.932  0.0923  0.0274 -0.1028
 1344PW      WM 8968   6.296  -0.008   9.875 -0.0058  0.5349  0.0241
 1345PW       W 8969   1.154   8.112   2.394 -0.2802  0.2271  0.0257
 1345PW      WP 8970   1.167   8.072   2.260 -0.2554  0.0695  0.0743
 1345PW      WM 8971   1.046   8.201   2.395  0.1153  0.7493 -0.3800
 1346PW       W 8972   6.991  12.033   8.055 -0.0417  0.3106 -0.4745
 1346PW      WP 8973   6.883  11.989   8.131  0.1959  0.0516 -0.2759
 1346PW      WM 8974   6.976  12.163   8.105 -0.0544  0.1122  0.0677
 1347PW       W 8975   8.077   6.001   9.973  0.1558 -0.4088 -0.2297
 1347PW      WP 8976   8.019   6.074  10.078  0.0926 -0.2109 -0.3975
 1347PW      WM 8977   8.006   5.968   9.856  0.0128  0.0105 -0.2723
 1348PW       W 8978   1.341   9.652   1.211  0.1506  0.3410  0.2579
 1348PW      WP 8979   1.348   9.704   1.081 -0.1407 -0.0474  0.0752
 1348PW      WM 8980   1.375   9.760   1.129  0.1320 -0.1475 -0.4480
 1349PW       W 8981   5.475   4.157   1.005 -0.0754  0.3300 -0.0346
 1349PW      WP 8982   5.563   4.121   1.108 -0.1103 -0.4701 -0.2501
 1349PW      WM 8983   5.336   4.164   1.017 -0.0901  0.3356 -0.1980
 1350PW       W 8984   8.521   1.816  11.421 -0.0350 -0.1037 -0.0313
 1350PW      WP 8985   8.656   1.846  11.447 -0.1213  0.1283  0.1664
 1350PW      WM 8986   8.450   1.697  11.403 -0.0041 -0.1493  0.1412
 1351PW       W 8987   3.494   6.902   2.747  0.2206 -0.0138 -0.2883
 1351PW      WP 8988   3.444   6.789   2.681  0.1407 -0.1553  0.0063
 1351PW      WM 8989   3.602   6.968   2.807  0.0873 -0.3656  0.3822
 1352PW       W 8990   9.281   3.673   1.961 -0.0168 -0.3603 -0.1654
 1352PW      WP 8991   9.374   3.591   1.895 -0.0056 -0.6559  0.2033
 1352PW      WM 8992   9.245   3.784   2.038  0.0785 -0.2591 -0.2657
 1353PW       W 8993   3.744   2.972   0.531  0.3066 -0.1204  0.1940
 1353PW      WP 8994   3.834   3.046   0.609  0.1478 -0.0011  0.2657
 1353PW      WM 8995   3.709   2.845   0.581 -0.0933  0.0274  0.3054
 1354PW       W 8996   3.911  11.019   4.876 -0.3944 -0.2484  0.3205
 1354PW      WP 8997   3.775  11.052   4.878 -0.4631 -0.4434 -0.2887
 1354PW      WM 8998   4.020  11.034   4.789 -0.2759 -0.5784  0.4032
 1355PW       W 8999   1.026   0.574  11.555  0.4129 -0.1282 -0.1456
 1355PW      WP 9000   0.927   0.508  11.627  0.3769 -0.5001 -0.5193
 1355PW      WM 9001   0.981   0.634  11.436 -0.2726 -0.1032  0.1052
 1356PW       W 9002   2.046   9.887  13.340  0.2467 -0.2499  0.6411
 1356PW      WP 9003   2.177   9.853  13.306  0.1456  0.4086 -0.7082
 1356PW      WM 9004   1.970   9.779  13.293 -0.1677  0.0825  0.5202
 1357PW       W 9005  10.385   2.109   4.204  0.2220 -0.3300 -0.2726
 1357PW      WP 9006  10.294   2.003   4.209  0.1799 -0.2847 -0.0181
 1357PW      WM 9007  10.521   2.135   4.186  0.1748  0.0483 -0.1465
 1358PW       W 9008   0.826   4.553   1.945  0.0309  0.3528  0.5330
 1358PW      WP 9009   0.800   4.578   1.809 -0.0426 -0.1731  0.4381
 1358PW      WM 9010   0.850   4.520   2.079  0.0948 -0.2840  0.3785
 1359PW       W 9011  10.531   7.689  11.463 -0.3040 -0.1452  0.3217
 1359PW      WP 9012  10.615   7.777  11.532 -0.0664  0.1202 -0.2732
 1359PW      WM 9013  10.458   7.807  11.442  0.2413  0.1636  0.0726
 1360PW       W 9014  -0.000   6.654   2.677 -0.1949 -0.2959 -0.3431
 1360PW      WP 9015   0.093   6.671   2.781 -0.4581  0.1210 -0.1607
 1360PW      WM 9016  -0.046   6.585   2.565  0.0352 -0.1727 -0.5155
 1361PW       W 9017   6.529  11.187   4.490 -0.0273 -0.2624 -0.0090
 1361PW      WP 9018   6.593  11.100   4.579  0.2112  0.0324  0.1154
 1361PW      WM 9019   6.625  11.288   4.499  0.3306 -0.5743 -0.1513
 1362PW       W 9020   6.267   3.022   9.205 -0.3499 -0.0114  0.1671
 1362PW      WP 9021   6.170   2.974   9.294 -0.1155  0.0405  0.4593
 1362PW      WM 9022   6.216   2.930   9.112 -0.2859  0.1739 -0.0553
 1363PW       W 9023   9.670   9.065   5.155 -0.0936 -0.1707 -0.1975
 1363PW      WP 9024   9.743   9.161   5.084 -0.5432  0.5220  0.2153
 1363PW      WM 9025   9.776   9.079   5.065 -0.3661  0.0088 -0.5037
 1364PW       W 9026   8.962   1.793   0.732  0.3738 -0.0879  0.1738
 1364PW      WP 9027   8.857   1.794   0.639  0.3171 -0.1300  0.2369
 1364PW      WM 9028   8.893   1.800   0.853  0.0994 -0.2612  0.0340
 1365PW       W 9029   8.527   6.754   0.757 -0.1357  0.0700  0.0906
 1365PW      WP 9030   8.639   6.810   0.695 -0.0296  0.0022  0.2181
 1365PW      WM 9031   8.423   6.793   0.671  0.3456 -0.0297 -0.5728
 1366PW       W 9032   5.053   1.874  12.727 -0.1738 -0.0546 -0.2299
 1366PW      WP 9033   5.116   1.802  12.625  0.1956 -0.4355  0.2413
 1366PW      WM 9034   5.071   1.782  12.831  0.3090  0.3050  0.0280
 1367PW       W 9035  11.715   5.992   2.612 -0.1461 -0.0191 -0.5213
 1367PW      WP 9036  11.801   6.076   2.542  0.1570  0.1333  0.0023
 1367PW      WM 9037  11.657   5.876   2.559 -0.2535 -0.1434 -0.1476
 1368PW       W 9038   9.566   1.852   1.407 -0.0880  0.2619 -0.0597
 1368PW      WP 9039   9.562   1.748   1.312  0.0256  0.2093 -0.0082
 1368PW      WM 9040   9.446   1.843   1.477 -0.0093 -0.0506  0.0423
 1369PW       W 9041   5.365   8.635   0.204  0.2601  0.1189 -0.1197
 1369PW      WP 9042   5.300   8.521   0.254  0.3045  0.0267 -0.2705
 1369PW      WM 9043   5.479   8.697   0.256  0.0512  0.3483  0.0801
 1370PW       W 9044   9.122   3.833   9.104 -0.2574  0.0784  0.0088
 1370PW      WP 9045   9.111   3.958   9.042  0.4110 -0.1469 -0.6388
 1370PW      WM 9046   9.202   3.804   9.216 -0.2184 -0.1177 -0.0669
 1371PW       W 9047   3.556   1.768   5.186 -0.7229  0.2129 -0.5364
 1371PW      WP 9048   3.628   1.868   5.253 -0.6488 -0.3642  0.3270
 1371PW      WM 9049   3.617   1.761   5.060  0.2331  0.2846 -0.1174
 1372PW       W 9050   0.413   8.412  11.736  0.3097  0.0717  0.1753
 1372PW      WP 9051   0.276   8.416  11.763  0.2421 -0.0717 -0.1148
 1372PW      WM 9052   0.409   8.282  11.787 -0.2548 -0.0140 -0.0483
 1373PW       W 9053   3.171   0.395  12.208 -0.1645  0.1517  0.2207
 1373PW      WP 9054   3.146   0.307  12.314  0.1571 -0.3313 -0.0841
 1373PW      WM 9055   3.235   0.377  12.084 -0.6143  0.0952 -0.0140
 1374PW       W 9056   5.906   2.204   3.397  0.1357 -0.0557 -0.1552
 1374PW      WP 9057   6.004   2.258   3.313  0.0798 -0.0525 -0.2188
 1374PW      WM 9058   5.785   2.160   3.342  0.3524 -0.4017 -0.3829
 1375PW       W 9059   7.024   6.752   3.960  0.0519  0.3677  0.1222
 1375PW      WP 9060   7.152   6.804   3.937 -0.0278  0.6022  0.1882
 1375PW      WM 9061   6.985   6.709   4.087 -0.0957  0.3068  0.0578
 1376PW       W 9062   2.763   4.219   9.235  0.0757  0.0861 -0.4733
 1376PW      WP 9063   2.865   4.158   9.161  0.0270 -0.0483 -0.4304
 1376PW      WM 9064   2.673   4.205   9.128 -0.2340  0.5925 -0.2958
 1377PW       W 9065  11.876   8.974  12.498  0.1625  0.0349  0.4797
 1377PW      WP 9066  11.806   9.071  12.426 -0.0612 -0.2310  0.3250
 1377PW      WM 9067  12.003   8.968  12.556  0.3308 -0.0181  0.1200
 1378PW       W 9068  11.883   8.407   4.763  0.2783 -0.1898  0.0531
 1378PW      WP 9069  11.966   8.307   4.816  0.3795 -0.1825 -0.0882
 1378PW      WM 9070  11.898   8.538   4.716 -0.1023 -0.0506  0.3012
 1379PW       W 9071   4.366   6.069   3.611 -0.2279 -0.4402  0.2186
 1379PW      WP 9072   4.467   6.046   3.517 -0.0680  0.1461  0.2292
 1379PW      WM 9073   4.312   6.150   3.511  0.3373 -0.2602  0.0438
 1380PW       W 9074   4.517   9.055   9.624 -0.0267 -0.0204 -0.4247
 1380PW      WP 9075   4.641   9.083   9.683  0.0608  0.1542 -0.6843
 1380PW      WM 9076   4.421   8.972   9.566  0.0042 -0.2401 -0.1728
 1381PW       W 9077   3.249   1.594  13.067  0.2207 -0.2636  0.1544
 1381PW      WP 9078   3.114   1.596  13.104  0.2864 -0.0106  0.3937
 1381PW      WM 9079   3.240   1.688  12.964 -0.0658  0.0733  0.4736
 1382PW       W 9080   7.395  10.362   4.937  0.2810 -0.0828  0.5464
 1382PW      WP 9081   7.423  10.432   5.055 -0.1399  0.2706  0.4484
 1382PW      WM 9082   7.409  10.501   4.927  0.3748 -0.1290 -0.3917
 1383PW       W 9083   2.591   4.095   2.754 -0.3872 -0.2189  0.4986
 1383PW      WP 9084   2.502   4.201   2.770  0.0188  0.2672 -0.1602
 1383PW      WM 9085   2.662   3.979   2.788  0.2413  0.1602  0.5642
 1384PW       W 9086   4.314   4.626   0.946  0.0460 -0.0950 -0.1190
 1384PW      WP 9087   4.297   4.759   0.984  0.0210 -0.1753  0.1633
 1384PW      WM 9088   4.441   4.638   0.888  0.1654  0.1713  0.1876
 1385PW       W 9089  10.342   7.326   1.639 -0.0231 -0.1224 -0.0925
 1385PW      WP 9090  10.401   7.301   1.514 -0.1986 -0.3673 -0.1315
 1385PW      WM 9091  10.289   7.360   1.514 -0.3747  0.3994  0.1812
 1386PW       W 9092  11.027   7.596   0.867 -0.2414 -0.4685 -0.3610
 1386PW      WP 9093  11.021   7.519   0.984 -0.1357 -0.0618 -0.0734
 1386PW      WM 9094  11.160   7.556   0.885 -0.3101 -0.4651  0.2796
 1387PW       W 9095   4.833   8.769   3.241 -0.3151  0.0920  0.1674
 1387PW      WP 9096   4.936   8.863   3.230 -0.3034  0.0226 -0.5311
 1387PW      WM 9097   4.705   8.824   3.230 -0.5465 -0.4575 -0.1073
 1388PW       W 9098   6.131   4.118   3.679  0.2092 -0.1015 -0.3621
 1388PW      WP 9099   6.227   4.207   3.730  0.2510 -0.5370  0.3947
 1388PW      WM 9100   6.022   4.138   3.594  0.1217  0.3245 -0.1620
 1389PW       W 9101   3.427   5.150   0.926 -0.0475  0.0965  0.0988
 1389PW      WP 9102   3.432   5.188   0.791 -0.4069  0.2732  0.1294
 1389PW      WM 9103   3.485   5.030   0.881  0.3453  0.1463  0.4450
 1390PW       W 9104   1.731   7.877   4.280  0.1469  0.0775  0.1029
 1390PW      WP 9105   1.649   7.839   4.386  0.1803  0.1694  0.1621
 1390PW      WM 9106   1.720   7.996   4.352 -0.3420  0.2315 -0.2027
 1391PW       W 9107   2.359   6.115  11.725  0.1982  0.0004  0.1688
 1391PW      WP 9108   2.333   6.147  11.859 -0.3067 -0.2130  0.1358
 1391PW      WM 9109   2.333   6.240  11.667 -0.0673 -0.1993 -0.1677
 1392PW       W 9110   5.879   9.111  12.044 -0.4399 -0.2952 -0.3185
 1392PW      WP 9111   5.893   8.973  12.059  0.4038 -0.1799  0.3340
 1392PW      WM 9112   5.872   9.031  12.158  0.3109  0.1586  0.0873
 1393PW       W 9113   4.424   1.640  12.367  0.2436  0.1249 -0.1359
 1393PW      WP 9114   4.323   1.548  12.394  0.0838  0.2128 -0.4204
 1393PW      WM 9115   4.374   1.756  12.428  0.1373 -0.2086  0.4508
 1394PW       W 9116  12.136   0.843   2.893  0.4434  0.1043  0.0034
 1394PW      WP 9117  11.999   0.871   2.896  0.4974  0.3559  0.4199
 1394PW      WM 9118  12.101   0.710   2.920 -0.0561  0.2238 -0.0074
 1395PW       W 9119   7.082   8.458   4.650 -0.2344  0.0315  0.5221
 1395PW      WP 9120   7.116   8.495   4.781 -0.5067  0.0483  0.5897
 1395PW      WM 9121   6.958   8.466   4.587 -0.2248 -0.2491  0.4615
 1396PW       W 9122   8.930  10.379   4.708 -0.0276  0.1507  0.0361
 1396PW      WP 9123   8.874  10.494   4.764  0.4730  0.2993  0.2635
 1396PW      WM 9124   9.027  10.418   4.615  0.4690 -0.7945  0.0994
 1397PW       W 9125   5.336   3.867   8.269  0.1109  0.0263 -0.0664
 1397PW      WP 9126   5.427   3.963   8.315 -0.1511  0.1433  0.2253
 1397PW      WM 9127   5.215   3.893   8.335 -0.0081 -0.5670 -0.0256
 1398PW       W 9128   8.554   1.014   4.127  0.0982  0.1079  0.1388
 1398PW      WP 9129   8.464   1.091   4.052 -0.1178 -0.4431 -0.2004
 1398PW      WM 9130   8.657   1.075   4.200  0.2825 -0.1709  0.1209
 1399PW       W 9131   0.058  11.957   1.355  0.1719 -0.2372  0.1104
 1399PW      WP 9132   0.126  12.022   1.459 -0.3206  0.4017  0.0669
 1399PW      WM 9133  -0.052  11.878   1.392 -0.0283  0.0426  0.1340
 1400PW       W 9134   7.415  11.947   8.532  0.1389 -0.3919  0.3847
 1400PW      WP 9135   7.397  11.994   8.663 -0.3427  0.2571  0.1091
 1400PW      WM 9136   7.326  12.053   8.509  0.2875 -0.3038  0.2025
 1401PW       W 9137   6.096   0.160  10.883  0.0364  0.2772  0.0430
 1401PW      WP 9138   6.225   0.189  10.930 -0.0230  0.0480  0.3672
 1401PW      WM 9139   6.218   0.136  10.820  0.0429 -0.3575  0.2667
 1402PW       W 9140   4.805  11.819   0.035  0.4296 -0.4237 -0.2823
 1402PW      WP 9141   4.799  11.943  -0.029  0.2305 -0.2641  0.0326
 1402PW      WM 9142   4.724  11.706   0.013 -0.0522 -0.1481 -0.0167
 1403PW       W 9143   8.607   0.783   2.120 -0.0095  0.1212 -0.3175
 1403PW      WP 9144   8.744   0.806   2.103  0.1009 -0.0700  0.2355
 1403PW      WM 9145   8.497   0.702   2.151 -0.3779  0.5383 -0.4712
 1404PW       W 9146   9.483  11.992  10.243 -0.2020 -0.0176  0.5027
 1404PW      WP 9147   9.482  12.060  10.121 -0.0325 -0.5039  0.2183
 1404PW      WM 9148   9.523  12.063  10.358  0.0094  0.4431  0.1604
 1405PW       W 9149   8.512   7.542   0.242 -0.4802  0.4423  0.0266
 1405PW      WP 9150   8.443   7.508   0.125 -0.1481  0.0781 -0.0745
 1405PW      WM 9151   8.561   7.673   0.235 -0.2852  0.3711  0.0113
 1406PW       W 9152   5.759   1.031   1.032 -0.2553 -0.0421  0.3730
 1406PW      WP 9153   5.799   0.897   1.041  0.4733  0.1518  0.3755
 1406PW      WM 9154   5.848   1.139   1.039  0.0079 -0.2043 -0.2171
 1407PW       W 9155  12.125   8.853   1.053  0.2619 -0.3992  0.2083
 1407PW      WP 9156  12.236   8.772   1.027  0.0740 -0.5525 -0.1475
 1407PW      WM 9157  12.059   8.824   1.173 -0.3250  0.6767  0.2094
 1408PW       W 9158  10.827   4.912   0.554  0.4664 -0.2177 -0.1989
 1408PW      WP 9159  10.833   5.047   0.516 -0.2083 -0.1506 -0.1308
 1408PW      WM 9160  10.891   4.833   0.651 -0.1829 -0.6451 -0.0861
 1409PW       W 9161   3.363   2.813   3.436  0.1311 -0.1185  0.2978
 1409PW      WP 9162   3.369   2.677   3.403  0.3135  0.0528 -0.4728
 1409PW      WM 9163   3.434   2.927   3.476  0.0356  0.0042  0.1233
 1410PW       W 9164   6.926   2.480   5.135 -0.2379  0.4026 -0.4041
 1410PW      WP 9165   6.889   2.614   5.120 -0.2446  0.4892  0.2588
 1410PW      WM 9166   7.042   2.556   5.156  0.0131  0.0528 -0.4780
 1411PW       W 9167   2.462   7.969   2.153  0.0480 -0.2175 -0.2856
 1411PW      WP 9168   2.506   7.909   2.034 -0.0261 -0.2376 -0.3031
 1411PW      WM 9169   2.407   8.096   2.127 -0.8976 -0.3652  0.6601
 1412PW       W 9170   2.727   3.772   4.867  0.0778  0.2115 -0.5778
 1412PW      WP 9171   2.616   3.747   4.786 -0.4208 -0.2262  0.1753
 1412PW      WM 9172   2.864   3.757   4.895 -0.0774 -0.1441  0.1103
 1413PW       W 9173   7.573  10.165   2.817  0.2358 -0.6344 -0.4146
 1413PW      WP 9174   7.531  10.153   2.684  0.0645 -0.0214 -0.4293
 1413PW      WM 9175   7.708  10.172   2.782  0.2887  0.2205 -0.1613
 1414PW       W 9176   3.153   6.945   4.339 -0.0786 -0.1900 -0.1701
 1414PW      WP 9177   3.232   6.847   4.401 -0.1346 -0.1949 -0.1062
 1414PW      WM 9178   3.015   6.937   4.317 -0.1048  0.2355 -0.2101
 1415PW       W 9179   8.734   4.016   1.882  0.1600  0.1825  0.1178
 1415PW      WP 9180   8.696   4.128   1.957  0.2848  0.0021  0.4629
 1415PW      WM 9181   8.823   3.965   1.788 -0.5643 -0.1033 -0.4610
 1416PW       W 9182   3.755  11.388  10.899 -0.4422  0.6347 -0.3996
 1416PW      WP 9183   3.691  11.312  10.997  0.0295 -0.1336 -0.6429
 1416PW      WM 9184   3.814  11.285  10.824 -0.0914  0.5978 -0.0912
 1417PW       W 9185   6.323   2.988  13.244  0.1201  0.5000  0.0846
 1417PW      WP 9186   6.249   2.879  13.197  0.3461  0.4268 -0.1080
 1417PW      WM 9187   6.346   3.122  13.208  0.2113  0.3980 -0.2542
 1418PW       W 9188   4.647   9.177   0.618 -0.1977 -0.1819 -0.1995
 1418PW      WP 9189   4.618   9.097   0.507 -0.1610 -0.4578 -0.0147
 1418PW      WM 9190   4.649   9.083   0.722 -0.3248 -0.2037 -0.2165
 1419PW       W 9191   7.855   0.376   2.518  0.2371 -0.2551 -0.4874
 1419PW      WP 9192   7.811   0.442   2.402 -0.0512  0.3072 -0.0798
 1419PW      WM 9193   7.863   0.246   2.467  0.1698 -0.5589  0.2201
 1420PW       W 9194   8.460   0.556   9.028  0.1583 -0.3556  0.0071
 1420PW      WP 9195   8.428   0.545   8.892  0.1995 -0.1799 -0.0187
 1420PW      WM 9196   8.355   0.550   9.121 -0.2329  0.0223 -0.3825
 1421PW       W 9197  10.573   0.637  12.381  0.1660 -0.0858  0.5863
 1421PW      WP 9198  10.691   0.713  12.391  0.3854 -0.3188  0.0069
 1421PW      WM 9199  10.687   0.603  12.306 -0.0036  0.1202  0.2231
 1422PW       W 9200   0.463   1.510  11.580 -0.2252 -0.0884 -0.1472
 1422PW      WP 9201   0.496   1.639  11.624 -0.0955 -0.1530 -0.0494
 1422PW      WM 9202   0.471   1.430  11.466  0.0955 -0.2400 -0.0241
 1423PW       W 9203  11.884   0.073   4.639 -0.4271 -0.4364  0.5948
 1423PW      WP 9204  11.748   0.078   4.609 -0.1688 -0.1220 -0.9390
 1423PW      WM 9205  11.978   0.004   4.561 -0.7289 -0.1155 -0.0920
 1424PW       W 9206   2.082  11.152   3.566  0.3029  0.1848  0.1864
 1424PW      WP 9207   2.030  11.062   3.473  0.9185 -0.5516  0.4916
 1424PW      WM 9208   1.949  11.167   3.606  0.2130  0.4881 -0.1993
 1425PW       W 9209   8.499   1.803   1.604 -0.1588 -0.0310 -0.5377
 1425PW      WP 9210   8.569   1.853   1.494 -0.3160  0.4224 -0.4440
 1425PW      WM 9211   8.440   1.681   1.570 -0.0048 -0.2877  0.0487
 1426PW       W 9212   6.919  10.009   3.209  0.0520 -0.0653  0.1521
 1426PW      WP 9213   6.792   9.987   3.262  0.0358 -0.0228  0.1314
 1426PW      WM 9214   6.821   9.981   3.114 -0.3863  0.5653  0.3889
 1427PW       W 9215   3.122   6.589   2.949  0.1436  0.6633  0.0066
 1427PW      WP 9216   3.012   6.631   3.024  0.1509  0.4529  0.1422
 1427PW      WM 9217   3.158   6.577   3.084 -0.6445 -0.0072  0.2007
 1428PW       W 9218   4.634   7.761  13.118  0.4976 -0.0937 -0.1505
 1428PW      WP 9219   4.599   7.628  13.092 -0.1315  0.0477 -0.1179
 1428PW      WM 9220   4.572   7.714  13.234  0.2692 -0.1282 -0.2839
 1429PW       W 9221   1.133   9.886  13.243  0.3021  0.3494 -0.0390
 1429PW      WP 9222   1.268   9.913  13.271  0.3246 -0.0594  0.2771
 1429PW      WM 9223   1.042   9.970  13.307  0.5119  0.2859  0.3559
 1430PW       W 9224  11.171   2.923  12.139 -0.4529  0.0872  0.3647
 1430PW      WP 9225  11.047   2.874  12.096 -0.2002 -0.3820  0.1220
 1430PW      WM 9226  11.256   2.972  12.040 -0.2554 -0.2395  0.3645
 1431PW       W 9227   2.014   7.858   1.293 -0.5169 -0.0486  0.0050
 1431PW      WP 9228   2.005   7.981   1.229  0.0870  0.1219  0.2085
 1431PW      WM 9229   2.087   7.934   1.385 -0.0453 -0.4978  0.0281
 1432PW       W 9230   9.897   2.605   4.325 -0.1725 -0.0421  0.3192
 1432PW      WP 9231   9.822   2.723   4.312  0.1490  0.1295 -0.0750
 1432PW      WM 9232  10.000   2.653   4.407  0.1448 -0.3039  0.0855
 1433PW       W 9233  11.580   5.095  13.298  0.8062 -0.2881 -0.3050
 1433PW      WP 9234  11.574   5.235  13.302 -0.0687 -0.3035  0.0418
 1433PW      WM 9235  11.564   5.067  13.161  0.0540  0.0423 -0.3118
 1434PW       W 9236   8.485   5.263   1.105  0.4545  0.0562  0.1923
 1434PW      WP 9237   8.467   5.382   1.034  0.1771 -0.0818  0.0188
 1434PW      WM 9238   8.420   5.173   1.191 -0.1233 -0.1557 -0.4212
 1435PW       W 9239  10.285   2.897   8.889  0.2999 -0.3179 -0.1491
 1435PW      WP 9240  10.300   2.946   8.758 -0.4784 -0.0746 -0.1711
 1435PW      WM 9241  10.156   2.909   8.941  0.2205  0.1583 -0.4298
 1436PW       W 9242   3.215   1.485   8.723 -0.3493  0.2747 -0.0911
 1436PW      WP 9243   3.310   1.467   8.623 -0.3063 -0.5600  0.0617
 1436PW      WM 9244   3.248   1.618   8.755  0.2632  0.0132  0.4829
 1437PW       W 9245   2.045   1.059   2.869  0.1273 -0.1962 -0.1304
 1437PW      WP 9246   2.018   1.176   2.942  0.0896  0.1489 -0.6639
 1437PW      WM 9247   2.003   0.926   2.876  0.2986 -0.2424  0.0497
 1438PW       W 9248   5.067   5.626   0.047 -0.1178 -0.0032  0.5339
 1438PW      WP 9249   4.944   5.679   0.005 -0.0640 -0.0704  0.2774
 1438PW      WM 9250   5.037   5.509  -0.025 -0.3557  0.2939  0.1261
 1439PW       W 9251  10.255   7.473   4.400  0.1543 -0.0050  0.0496
 1439PW      WP 9252  10.193   7.353   4.438  0.2412 -0.2308 -0.4825
 1439PW      WM 9253  10.319   7.475   4.525  0.3436 -0.5230 -0.0273
 1440PW       W 9254   6.588   5.558   3.494 -0.1302 -0.5503 -0.0172
 1440PW      WP 9255   6.541   5.639   3.598  0.1427  0.1126 -0.3807
 1440PW      WM 9256   6.535   5.593   3.370  0.0350 -0.2145  0.0023
 1441PW       W 9257   3.965   6.551   1.411 -0.2758  0.1735  0.4105
 1441PW      WP 9258   4.099   6.532   1.447 -0.0949 -0.2174 -0.3538
 1441PW      WM 9259   3.843   6.570   1.478 -0.5967  0.2229 -0.1524
 1442PW       W 9260   8.987   4.807   9.112  0.0034 -0.2060 -0.1282
 1442PW      WP 9261   8.940   4.700   9.189 -0.5933 -0.1301 -0.3560
 1442PW      WM 9262   9.074   4.915   9.126  0.2206 -0.3731 -0.1539
 1443PW       W 9263  10.263   1.349  10.784  0.0364  0.1404  0.3705
 1443PW      WP 9264  10.349   1.276  10.700  0.3901  0.6810  0.2342
 1443PW      WM 9265  10.326   1.473  10.806  0.5213  0.0020 -0.1278
 1444PW       W 9266  10.852   7.796   0.466 -0.0923  0.1039  0.1113
 1444PW      WP 9267  10.761   7.901   0.472  0.0164  0.2419 -0.3862
 1444PW      WM 9268  10.990   7.810   0.444 -0.0588 -0.5438 -0.2036
 1445PW       W 9269   7.840  10.476   4.392 -0.2401  0.0782  0.1160
 1445PW      WP 9270   7.753  10.434   4.291 -0.1186  0.1761 -0.0323
 1445PW      WM 9271   7.855  10.341   4.426 -0.0108  0.1619  0.3647
 1446PW       W 9272   0.555   1.073   4.781 -0.2428 -0.5672 -0.5870
 1446PW      WP 9273   0.476   0.997   4.868 -0.0261 -0.3641 -0.2007
 1446PW      WM 9274   0.441   1.142   4.738  0.2223  0.3541 -0.4763
 1447PW       W 9275   0.520   4.896   0.786 -0.4287 -0.1299 -0.3866
 1447PW      WP 9276   0.486   5.015   0.720  0.1341  0.3434  0.1203
 1447PW      WM 9277   0.526   4.799   0.887  0.0061  0.1207 -0.1583
 1448PW       W 9278  11.155   6.017   4.654 -0.4446  0.4875 -0.0212
 1448PW      WP 9279  11.147   5.886   4.607  0.3678  0.5174 -0.3195
 1448PW      WM 9280  11.141   5.987   4.790  0.2344 -0.2298 -0.0750
 1449PW       W 9281   2.190   5.243   9.876  0.2011 -0.4056  0.5177
 1449PW      WP 9282   2.299   5.156   9.890  0.3326 -0.2450  0.5135
 1449PW      WM 9283   2.083   5.268   9.963 -0.2905 -0.1618 -0.1241
 1450PW       W 9284   3.457   4.566  10.148  0.1645  0.1615  0.2363
 1450PW      WP 9285   3.323   4.528  10.164  0.1414  0.0602 -0.1476
 1450PW      WM 9286   3.502   4.553  10.280 -0.0955 -0.5852  0.2777
 1451PW       W 9287   1.592   0.079   4.357  0.0485 -0.2456 -0.0960
 1451PW      WP 9288   1.719   0.066   4.301 -0.0419 -0.4497 -0.2653
 1451PW      WM 9289   1.573   0.114   4.492  0.2414  0.1319 -0.1626
 1452PW       W 9290   0.697   7.156   0.851 -0.2208  0.1191  0.0164
 1452PW      WP 9291   0.765   7.245   0.934  0.0249  0.0007 -0.0543
 1452PW      WM 9292   0.801   7.247   0.830 -0.0844 -0.0804 -0.1959
 1453PW       W 9293   6.997   0.432   3.976 -0.2588  0.3327  0.4723
 1453PW      WP 9294   6.992   0.510   3.860 -0.5437 -0.6312 -0.2220
 1453PW      WM 9295   7.103   0.342   3.986 -0.3266  0.1178 -0.3649
 1454PW       W 9296   4.779   7.730   9.712 -0.0043  0.1200  0.2852
 1454PW      WP 9297   4.793   7.855   9.652 -0.4347 -0.1649 -0.4860
 1454PW      WM 9298   4.694   7.682   9.611  0.4733 -0.2769  0.0484
 1455PW       W 9299  11.058   9.029   2.627  0.4371  0.3588 -0.1514
 1455PW      WP 9300  10.972   9.113   2.555  0.2732 -0.0356 -0.4375
 1455PW      WM 9301  11.122   9.025   2.751  0.0006 -0.0396  0.0779
 1456PW       W 9302   9.505   2.390  11.942 -0.1663 -0.2956 -0.0460
 1456PW      WP 9303   9.381   2.329  11.964 -0.2003 -0.2109 -0.0006
 1456PW      WM 9304   9.597   2.428  12.040 -0.2895 -0.0742 -0.0131
 1457PW       W 9305   7.810  11.207  10.369 -0.1797 -0.1908  0.1480
 1457PW      WP 9306   7.907  11.106  10.364 -0.3160 -0.3340  0.3353
 1457PW      WM 9307   7.810  11.203  10.229 -0.1400  0.1451  0.1353
 1458PW       W 9308  10.851  10.669  12.719  0.0649 -0.2240  0.0787
 1458PW      WP 9309  10.985  10.677  12.680  0.1129 -0.5678  0.1549
 1458PW      WM 9310  10.898  10.792  12.673 -0.5118  0.2156  0.5738
 1459PW       W 9311   7.287   3.583   3.026  0.2006  0.0016 -0.3049
 1459PW      WP 9312   7.206   3.692   2.991  0.1181 -0.0043 -0.1355
 1459PW      WM 9313   7.251   3.661   2.914  0.3832  0.3094 -0.1570
 1460PW       W 9314   4.706   4.047   9.725 -0.2717  0.0725  0.2058
 1460PW      WP 9315   4.594   4.002   9.653 -0.1180  0.0724 -0.0420
 1460PW      WM 9316   4.828   4.015   9.784 -0.1058  0.2201 -0.0481
 1461PW       W 9317   9.924   5.387   9.200 -0.1530 -0.1692  0.2428
 1461PW      WP 9318  10.063   5.380   9.190 -0.1383 -0.2174  0.4496
 1461PW      WM 9319   9.939   5.317   9.080 -0.3985  0.2973 -0.0722
 1462PW       W 9320   4.934   2.584   3.205 -0.0356 -0.0081 -0.0145
 1462PW      WP 9321   4.894   2.497   3.308  0.1119 -0.1739 -0.0942
 1462PW      WM 9322   5.063   2.530   3.214  0.2336  0.5424 -0.3463
 1463PW       W 9323   7.923  12.127  12.822 -0.2554  0.2415  0.4344
 1463PW      WP 9324   7.844  12.071  12.721  0.8173 -0.1300 -0.2898
 1463PW      WM 9325   7.831  12.032  12.870  0.3019 -0.6415 -0.0991
 1464PW       W 9326  10.222   5.397  12.800 -0.0606  0.2272  0.1473
 1464PW      WP 9327  10.248   5.527  12.756  0.4298  0.0464 -0.1386
 1464PW      WM 9328  10.139   5.340  12.897  0.1350 -0.0989  0.1345
 1465PW       W 9329   7.142   0.536   8.937  0.0557 -0.1911 -0.3381
 1465PW      WP 9330   7.274   0.488   8.940  0.4068  0.6901 -0.0458
 1465PW      WM 9331   7.034   0.478   9.004 -0.0441  0.3860  0.0377
 1466PW       W 9332   1.251   4.955   2.618  0.0894  0.1875  0.4625
 1466PW      WP 9333   1.243   4.918   2.484  0.3183  0.7499  0.2802
 1466PW      WM 9334   1.141   4.890   2.676 -0.1265  0.2784  0.1672
 1467PW       W 9335   5.462   9.011   5.251  0.0929  0.2477  0.3043
 1467PW      WP 9336   5.353   9.075   5.191  0.0566 -0.1417 -0.0712
 1467PW      WM 9337   5.556   8.937   5.178 -0.0502  0.5328 -0.1882
 1468PW       W 9338   7.062   5.190   4.816  0.1856  0.0685  0.0360
 1468PW      WP 9339   6.931   5.207   4.769  0.1623 -0.0533  0.0546
 1468PW      WM 9340   7.105   5.323   4.805  0.5436 -0.0220  0.2694
 1469PW       W 9341   4.467  10.626   0.955  0.0015  0.1617  0.3302
 1469PW      WP 9342   4.400  10.511   0.910  0.1129  0.4188 -0.5973
 1469PW      WM 9343   4.593  10.567   0.945  0.1260  0.4667 -0.0290
 1470PW       W 9344   3.482   4.708   5.370 -0.0260  0.0088 -0.4231
 1470PW      WP 9345   3.482   4.568   5.366 -0.3033 -0.0070 -0.1017
 1470PW      WM 9346   3.471   4.846   5.391  0.2751 -0.0624  0.3848
 1471PW       W 9347   7.418   7.674  12.704 -0.0142 -0.4181  0.2664
 1471PW      WP 9348   7.357   7.686  12.830 -0.0335  0.1953  0.2152
 1471PW      WM 9349   7.341   7.595  12.790 -0.0011 -0.2466  0.4399
 1472PW       W 9350   3.333   2.619   4.189 -0.0876 -0.0899 -0.4093
 1472PW      WP 9351   3.430   2.519   4.173  0.3627  0.2764 -0.1183
 1472PW      WM 9352   3.290   2.671   4.312 -0.0333  0.0282 -0.4392
 1473PW       W 9353   2.192   3.639   0.436 -0.2528 -0.3026 -0.1268
 1473PW      WP 9354   2.232   3.742   0.350 -0.5165  0.3140  0.4438
 1473PW      WM 9355   2.265   3.520   0.443  0.0342 -0.1148  0.2261
 1474PW       W 9356   7.599  10.641   8.953  0.0652  0.1251  0.1235
 1474PW      WP 9357   7.727  10.609   9.001  0.1576  0.0457 -0.1682
 1474PW      WM 9358   7.496  10.548   8.969 -0.1278  0.3449  0.1778
 1475PW       W 9359   7.510   8.496   4.075  0.0968 -0.1347 -0.2480
 1475PW      WP 9360   7.393   8.420   4.060  0.0060 -0.0624  0.0630
 1475PW      WM 9361   7.449   8.584   3.985 -0.2202  0.0778  0.1580
 1476PW       W 9362   7.660   1.931   2.090 -0.0266  0.2858  0.2856
 1476PW      WP 9363   7.646   1.855   2.206  0.2988 -0.2199  0.0137
 1476PW      WM 9364   7.796   1.948   2.117  0.0402 -0.0397  0.1852
 1477PW       W 9365   2.253  11.875   9.367 -0.2535  0.0158  0.2756
 1477PW      WP 9366   2.348  11.877   9.469  0.0830 -0.3715 -0.0121
 1477PW      WM 9367   2.156  11.971   9.397 -0.0667  0.2774  0.0757
 1478PW       W 9368   2.915   7.280   9.875  0.1217  0.2068  0.1695
 1478PW      WP 9369   2.946   7.416   9.864 -0.2911  0.2909 -0.0726
 1478PW      WM 9370   2.846   7.270   9.996  0.3056  0.3872  0.2913
 1479PW       W 9371   0.571   7.149  12.402  0.3925  0.1100 -0.1002
 1479PW      WP 9372   0.504   7.029  12.428  0.0895  0.1737 -0.5331
 1479PW      WM 9373   0.527   7.226  12.293 -0.0733  0.2530  0.1740
 1480PW       W 9374   7.869  11.366   3.129  0.2542  0.1812  0.4241
 1480PW      WP 9375   7.868  11.228   3.153  0.2217  0.0659 -0.1634
 1480PW      WM 9376   7.826  11.380   3.262  0.3199  0.2829  0.4344
 1481PW       W 9377   5.162   5.491   3.392 -0.1358 -0.0134  0.0011
 1481PW      WP 9378   5.136   5.616   3.335 -0.1202  0.2704  0.5860
 1481PW      WM 9379   5.065   5.399   3.433 -0.2173  0.0198 -0.1151
 1482PW       W 9380   1.480   6.451  10.705 -0.3318 -0.3391  0.2743
 1482PW      WP 9381   1.408   6.567  10.737  0.2851  0.1329  0.0522
 1482PW      WM 9382   1.607   6.399  10.736  0.0585  0.0807 -0.4819
 1483PW       W 9383   2.074   9.410  11.848 -0.1089  0.0230  0.2853
 1483PW      WP 9384   2.068   9.281  11.795 -0.2624 -0.0330  0.4344
 1483PW      WM 9385   1.980   9.336  11.920  0.1115 -0.1345  0.4170
 1484PW       W 9386   7.579   6.644   0.276 -0.3643 -0.1026 -0.3854
 1484PW      WP 9387   7.648   6.562   0.186  0.1483 -0.5795  0.3847
 1484PW      WM 9388   7.686   6.721   0.229 -0.1117  0.3839  0.8128
 1485PW       W 9389   3.379  11.076  12.203  0.1469 -0.1604 -0.3371
 1485PW      WP 9390   3.373  11.050  12.066 -0.1003 -0.0394 -0.3514
 1485PW      WM 9391   3.449  11.075  12.325 -0.2773  0.0449 -0.0835
 1486PW       W 9392   2.920   6.896   0.264 -0.2442  0.1372 -0.0992
 1486PW      WP 9393   2.791   6.900   0.208 -0.3543 -0.5943  0.0523
 1486PW      WM 9394   2.863   6.828   0.373  0.1731 -0.1369 -0.0417
 1487PW       W 9395   7.591  11.764  13.366  0.5692 -0.3588  0.2854
 1487PW      WP 9396   7.701  11.822  13.302  0.1795  0.1269  0.0205
 1487PW      WM 9397   7.576  11.677  13.258  0.0295 -0.1862  0.2037
 1488PW       W 9398   9.385   2.062   3.171 -0.0356  0.0370 -0.0864
 1488PW      WP 9399   9.314   1.943   3.147  0.5124 -0.3557  0.1396
 1488PW      WM 9400   9.424   2.047   3.038  0.2132  0.1153 -0.0244
 1489PW       W 9401   4.380  11.058   9.026  0.0511 -0.1397  0.1093
 1489PW      WP 9402   4.254  10.998   9.026 -0.0015 -0.0756 -0.6421
 1489PW      WM 9403   4.432  10.929   9.017 -0.0434 -0.1560 -0.3475
 1490PW       W 9404   3.629   2.899  12.629 -0.0035  0.1886  0.0357
 1490PW      WP 9405   3.498   2.907  12.679 -0.0237  0.2299 -0.0223
 1490PW      WM 9406   3.582   2.787  12.559  0.0043  0.3759 -0.2788
 1491PW       W 9407   1.759   1.079   0.633 -0.4160  0.1683  0.0248
 1491PW      WP 9408   1.727   0.991   0.736  0.2231  0.1863  0.2644
 1491PW      WM 9409   1.747   1.214   0.668  0.0876  0.0861  0.6122
 1492PW       W 9410  10.633   8.150   3.851 -0.2018 -0.0523  0.3760
 1492PW      WP 9411  10.513   8.090   3.810 -0.1593  0.1440 -0.0676
 1492PW      WM 9412  10.588   8.251   3.764  0.3257  0.0086  0.1517
 1493PW       W 9413   8.775   1.133  10.340  0.0836 -0.0086 -0.1376
 1493PW      WP 9414   8.734   1.192  10.460 -0.2539 -0.6917  0.1087
 1493PW      WM 9415   8.732   1.259  10.297 -0.1879 -0.3066 -0.8200
 1494PW       W 9416   7.983   4.852   3.110 -0.0950  0.0985 -0.0120
 1494PW      WP 9417   7.864   4.917   3.073 -0.0585  0.1132 -0.1062
 1494PW      WM 9418   8.069   4.747   3.074  0.2455  0.2813  0.2388
 1495PW       W 9419   8.889   8.474   8.870  0.4639  0.2987 -0.3214
 1495PW      WP 9420   8.813   8.507   8.757 -0.1072  0.1687  0.0032
 1495PW      WM 9421   8.922   8.588   8.945 -0.3382  0.4489 -0.1405
 1496PW       W 9422   8.980  10.917   1.926  0.2469 -0.0688 -0.4608
 1496PW      WP 9423   9.115  10.881   1.913  0.3491 -0.0164  0.2762
 1496PW      WM 9424   8.916  11.034   1.882 -0.1685 -0.1619 -0.1290
 1497PW       W 9425   6.036   2.835   3.860 -0.2055  0.1896  0.0926
 1497PW      WP 9426   6.155   2.791   3.800 -0.4564  0.0955 -0.3516
 1497PW      WM 9427   5.983   2.798   3.736 -0.5053  0.6834  0.0622
 1498PW       W 9428   7.765   4.375   3.301 -0.5864  0.0996  0.1798
 1498PW      WP 9429   7.890   4.425   3.340 -0.5253  0.0431  0.0590
 1498PW      WM 9430   7.701   4.433   3.190 -0.4533 -0.1564 -0.0371
 1499PW       W 9431   7.674  10.651  12.109 -0.0341  0.1902  0.1393
 1499PW      WP 9432   7.774  10.555  12.127  0.2479  0.4514  0.0051
 1499PW      WM 9433   7.650  10.620  12.243 -0.3163  0.4067  0.1441
 1500PW       W 9434   8.155   9.970   2.515 -0.1862 -0.1184 -0.1642
 1500PW      WP 9435   8.169  10.039   2.395 -0.0142 -0.1347 -0.1545
 1500PW      WM 9436   8.171   9.848   2.583 -0.0908  0.0147  0.0588
 1501PW       W 9437  11.231   1.508   2.040  0.1875 -0.2430  0.1666
 1501PW      WP 9438  11.175   1.381   2.063  0.1320 -0.2858 -0.1634
 1501PW      WM 9439  11.367   1.478   2.044  0.1437 -0.4393  0.2716
 1502PW       W 9440   1.059  12.102  12.317  0.0385 -0.1005  0.0142
 1502PW      WP 9441   1.167  12.024  12.359  0.0234 -0.0113  0.2256
 1502PW      WM 9442   1.142  12.178  12.233 -0.0030 -0.1641 -0.0842
 1503PW       W 9443   8.508   0.775   3.207  0.2377  0.0708 -0.0327
 1503PW      WP 9444   8.593   0.705   3.292 -0.4217 -0.4259  0.2628
 1503PW      WM 9445   8.543   0.909   3.227 -0.5575  0.2698  0.1955
 1504PW       W 9446   4.979   3.140   9.802 -0.0853 -0.0610 -0.1953
 1504PW      WP 9447   4.885   3.092   9.710 -0.1393 -0.3570  0.0048
 1504PW      WM 9448   4.920   3.155   9.928 -0.1230  0.0447 -0.2259
 1505PW       W 9449   7.803  10.963   3.364 -0.0087 -0.4102 -0.0947
 1505PW      WP 9450   7.708  10.861   3.379 -0.2567 -0.3020 -0.7572
 1505PW      WM 9451   7.838  11.058   3.267 -0.5752 -0.1135 -0.0311
 1506PW       W 9452   7.137   1.916  11.567  0.1723  0.5713  0.0503
 1506PW      WP 9453   7.065   1.897  11.449 -0.4176 -0.2846  0.4984
 1506PW      WM 9454   7.095   2.012  11.660  0.1314  0.3229  0.2950
 1507PW       W 9455   8.709   6.797  12.829 -0.1642 -0.0703 -0.0950
 1507PW      WP 9456   8.814   6.871  12.774 -0.5418  0.4532 -0.1546
 1507PW      WM 9457   8.645   6.917  12.863 -0.3272 -0.0043 -0.5911
 1508PW       W 9458  10.577  10.436   1.747  0.3096 -0.4804  0.1665
 1508PW      WP 9459  10.559  10.570   1.785 -0.1241 -0.5148  0.1070
 1508PW      WM 9460  10.653  10.414   1.632 -0.1464 -0.1167 -0.2290
 1509PW       W 9461   9.076   7.417   0.102 -0.0223 -0.1116 -0.3926
 1509PW      WP 9462   9.047   7.317   0.008 -0.0461 -0.4145 -0.0712
 1509PW      WM 9463   9.191   7.393   0.177  0.2321  0.9076 -0.3820
 1510PW       W 9464  11.212  10.684  10.378 -0.3551 -0.1024 -0.1138
 1510PW      WP 9465  11.158  10.809  10.407 -0.0817 -0.1130  0.5155
 1510PW      WM 9466  11.259  10.685  10.510  0.0251  0.3183 -0.2398
 1511PW       W 9467  11.302   4.321  11.450 -0.0518  0.5596 -0.2240
 1511PW      WP 9468  11.389   4.218  11.488  0.1264  0.5858 -0.5400
 1511PW      WM 9469  11.431   4.287  11.409  0.0968  0.8118  0.0244
 1512PW       W 9470   2.778   3.430   5.271 -0.0124 -0.3949  0.9768
 1512PW      WP 9471   2.793   3.556   5.331  0.3503 -0.1309  0.3763
 1512PW      WM 9472   2.690   3.322   5.283 -0.4799 -0.1852 -0.0355
 1513PW       W 9473  11.254   5.048   3.956  0.3710 -0.1802  0.1507
 1513PW      WP 9474  11.273   5.053   3.818  0.2026 -0.4863  0.1104
 1513PW      WM 9475  11.300   5.137   4.053  0.4616  0.1732 -0.2036
 1514PW       W 9476   4.640   5.826   0.957  0.0271  0.1266  0.3709
 1514PW      WP 9477   4.576   5.704   0.935  0.0634  0.1986 -0.2291
 1514PW      WM 9478   4.672   5.700   0.906 -0.4984  0.0047  0.3155
 1515PW       W 9479   9.862   9.739  12.036 -0.1390  0.3239 -0.1369
 1515PW      WP 9480   9.752   9.814  12.078 -0.4088 -0.2480  0.2377
 1515PW      WM 9481   9.754   9.691  11.962  0.1185 -0.2713 -0.1562
 1516PW       W 9482  11.573   7.039   1.258  0.4387 -0.1490  0.3780
 1516PW      WP 9483  11.479   7.126   1.314  0.3688 -0.1667  0.2894
 1516PW      WM 9484  11.608   7.154   1.186  0.0421 -0.0793  0.2839
 1517PW       W 9485   6.718   5.068   9.626  0.0394 -0.2633 -0.2439
 1517PW      WP 9486   6.849   5.070   9.675 -0.2545  0.4632  0.6589
 1517PW      WM 9487   6.628   5.123   9.533 -0.5508 -0.3594  0.2395
 1518PW       W 9488   1.665   6.309   9.252 -0.0228  0.1701  0.1746
 1518PW      WP 9489   1.641   6.221   9.358 -0.0142 -0.3632 -0.2438
 1518PW      WM 9490   1.587   6.367   9.151  0.1586  0.1192  0.0007
 1519PW       W 9491  11.664   6.937  13.239 -0.3791  0.0919 -0.4274
 1519PW      WP 9492  11.779   7.006  13.198 -0.0847 -0.2424 -0.1958
 1519PW      WM 9493  11.679   6.901  13.105  0.1834 -0.2642 -0.2832
 1520PW       W 9494   5.354   7.398   5.115  0.1176  0.0793 -0.2633
 1520PW      WP 9495   5.375   7.523   5.055 -0.1058  0.3536  0.2003
 1520PW      WM 9496   5.246   7.309   5.110  0.2030 -0.0346 -0.1247
 1521PW       W 9497   5.867   3.198  10.762 -0.5196  0.2659  0.6179
 1521PW      WP 9498   5.975   3.119  10.803 -0.1421  0.4563  0.0428
 1521PW      WM 9499   5.949   3.306  10.798  0.5621 -0.2344 -0.0819
 1522PW       W 9500   9.002   9.473   8.721 -0.1077 -0.0183  0.2816
 1522PW      WP 9501   8.881   9.478   8.651  0.0039 -0.0565  0.0821
 1522PW      WM 9502   9.027   9.427   8.851  0.5104  0.2550  0.2772
 1523PW       W 9503   0.667  10.963   3.789 -0.0548 -0.1504  0.2398
 1523PW      WP 9504   0.733  10.963   3.912 -0.4322 -0.4285  0.4567
 1523PW      WM 9505   0.597  10.905   3.682 -0.1161  0.1967  0.0855
 1524PW       W 9506   6.293   6.708   0.543  0.2957  0.0840  0.1847
 1524PW      WP 9507   6.357   6.583   0.547 -0.5872 -0.4065  0.2902
 1524PW      WM 9508   6.270   6.835   0.488 -0.0515  0.0646  0.2750
 1525PW       W 9509   9.969   0.947   2.266 -0.0292 -0.2088  0.1022
 1525PW      WP 9510  10.097   1.004   2.263  0.2919 -0.8686  0.2881
 1525PW      WM 9511   9.888   0.944   2.380 -0.0072  0.2976  0.1442
 1526PW       W 9512   5.680   4.284  13.296 -0.1814 -0.0001  0.1683
 1526PW      WP 9513   5.693   4.377  13.193 -0.0968  0.2735  0.4193
 1526PW      WM 9514   5.818   4.271  13.271 -0.1729  0.2226  0.0869
 1527PW       W 9515   2.990   9.670  10.100  0.1601 -0.5322  0.2106
 1527PW      WP 9516   3.052   9.637  10.221  0.1021 -0.4595  0.2601
 1527PW      WM 9517   3.046   9.782  10.038  0.0866 -0.5322  0.1436
 1528PW       W 9518   4.351  10.898   8.410 -0.2897  0.3796  0.0151
 1528PW      WP 9519   4.276  10.891   8.292  0.2397 -0.1088 -0.3215
 1528PW      WM 9520   4.447  10.876   8.510 -0.0891 -0.2944 -0.2973
 1529PW       W 9521   1.281   9.125   3.904 -0.0337 -0.1487  0.3466
 1529PW      WP 9522   1.227   9.009   3.848  0.2304 -0.1539  0.0902
 1529PW      WM 9523   1.237   9.246   3.850 -0.1838 -0.2179  0.3105
 1530PW       W 9524   4.997   2.590  11.266  0.4221  0.0026 -0.1688
 1530PW      WP 9525   4.989   2.691  11.362  0.3773 -0.2700  0.1259
 1530PW      WM 9526   5.081   2.487  11.222  0.2689 -0.2170  0.0404
 1531PW       W 9527   1.633   5.418  13.318 -0.0212  0.2688 -0.1761
 1531PW      WP 9528   1.566   5.341  13.222  0.5119 -0.1818 -0.2090
 1531PW      WM 9529   1.630   5.344  13.436 -0.2377  0.2538 -0.1883
 1532PW       W 9530   6.679  12.158   2.550 -0.4234 -0.6898  0.2250
 1532PW      WP 9531   6.598  12.067   2.483 -0.6290  0.0892 -0.6845
 1532PW      WM 9532   6.772  12.190   2.451 -0.9322  0.2197 -0.0100
 1533PW       W 9533   6.520   1.056   4.040 -0.0752  0.0949 -0.3007
 1533PW      WP 9534   6.551   0.932   3.983 -0.2243  0.1430 -0.4905
 1533PW      WM 9535   6.534   1.087   4.176 -0.4389 -0.1476 -0.2030
 1534PW       W 9536   6.313   4.157   0.553  0.0822 -0.5519  0.3534
 1534PW      WP 9537   6.202   4.176   0.471  0.1405  0.2133  0.4117
 1534PW      WM 9538   6.356   4.037   0.498  0.2049 -0.2318 -0.2939
 1535PW       W 9539  11.893   2.168  10.070 -0.1851 -0.0012  0.1598
 1535PW      WP 9540  11.964   2.172   9.950 -0.3353  0.0663  0.0707
 1535PW      WM 9541  11.929   2.033  10.062  1.2380  0.3051  0.0683
 1536PW       W 9542   9.445   1.570   3.879 -0.0474 -0.5280  0.1127
 1536PW      WP 9543   9.559   1.637   3.833 -0.0355 -0.3173  0.4364
 1536PW      WM 9544   9.381   1.472   3.957 -0.4911  0.0233  0.4788
 1537PW       W 9545   6.268   9.103   1.314 -0.3675  0.3054  0.2967
 1537PW      WP 9546   6.167   9.073   1.222 -0.0262 -0.1406  0.0454
 1537PW      WM 9547   6.290   9.080   1.450  0.4416  0.2949  0.1864
 1538PW       W 9548   6.853   9.497   0.515 -0.0158 -0.0835 -0.4818
 1538PW      WP 9549   6.790   9.407   0.428 -0.2094  0.0574 -0.4917
 1538PW      WM 9550   6.966   9.578   0.507  0.0843 -0.0791  0.4211
 1539PW       W 9551   1.633   3.590   3.415 -0.1342 -0.2539 -0.2615
 1539PW      WP 9552   1.723   3.522   3.498  0.0930 -0.0300 -0.3193
 1539PW      WM 9553   1.734   3.595   3.318  0.0162 -0.1674 -0.1037
 1540PW       W 9554  11.841   9.500   9.536  0.2611  0.0802 -0.2152
 1540PW      WP 9555  11.758   9.456   9.640  0.6040 -0.0399  0.0166
 1540PW      WM 9556  11.725   9.445   9.479  0.0789 -0.0569  0.2649
 1541PW       W 9557  10.067   1.502   3.513  0.2479  0.0545 -0.2107
 1541PW      WP 9558  10.178   1.425   3.547  0.0731  0.1308  0.6444
 1541PW      WM 9559  10.047   1.574   3.631 -0.0749 -0.3797  0.0166
 1542PW       W 9560   5.755   8.797   0.272 -0.2334  0.2124 -0.2847
 1542PW      WP 9561   5.618   8.774   0.254 -0.1953 -0.6730  0.2478
 1542PW      WM 9562   5.893   8.784   0.250 -0.1861 -0.1909  0.1627
 1543PW       W 9563   3.027   9.075   3.627 -0.2788 -0.1988 -0.1739
 1543PW      WP 9564   2.929   8.983   3.665  0.2499 -0.5025  0.5956
 1543PW      WM 9565   3.146   9.025   3.573 -0.1461  0.3037 -0.3744
 1544PW       W 9566  11.910   5.483  10.778  0.1575 -0.3241  0.0860
 1544PW      WP 9567  11.784   5.457  10.723  0.0257  0.7425 -0.2441
 1544PW      WM 9568  11.960   5.611  10.750  0.0689 -0.4249 -0.6382
 1545PW       W 9569   2.509   4.761   4.478  0.0454 -0.1388 -0.5996
 1545PW      WP 9570   2.570   4.673   4.567  0.0911  0.0856 -0.4050
 1545PW      WM 9571   2.514   4.624   4.449  0.1127 -0.3101  0.1409
 1546PW       W 9572   2.317   5.557  10.317  0.1546  0.2854  0.0838
 1546PW      WP 9573   2.188   5.564  10.373  0.3490 -0.0034  0.5984
 1546PW      WM 9574   2.342   5.671  10.240 -0.4527  0.3069 -0.1135
 1547PW       W 9575  11.773   6.193  10.716  0.0197  0.3825 -0.1629
 1547PW      WP 9576  11.687   6.131  10.808  0.6455 -0.5795 -0.1487
 1547PW      WM 9577  11.898   6.240  10.673  0.3505  0.0724  0.4113
 1548PW       W 9578   2.007  10.951   2.819  0.0671  0.6109 -0.6135
 1548PW      WP 9579   1.873  10.913   2.801  0.1617 -0.0478 -0.1395
 1548PW      WM 9580   2.106  11.017   2.893 -0.3345  0.5515  0.0218
 1549PW       W 9581  10.512   3.271  10.858  0.1262 -0.0671 -0.0760
 1549PW      WP 9582  10.390   3.227  10.910 -0.0044  0.6350  0.2603
 1549PW      WM 9583  10.530   3.233  10.724  0.1769 -0.1698 -0.0411
 1550PW       W 9584   0.215   4.670   3.412  0.1466 -0.1174  0.0227
 1550PW      WP 9585   0.082   4.709   3.432  0.1292  0.0423 -0.3676
 1550PW      WM 9586   0.265   4.600   3.523  0.2239  0.2056  0.1963
 1551PW       W 9587   3.872   1.130  12.959 -0.1243  0.1895 -0.3007
 1551PW      WP 9588   3.790   1.208  13.041  0.0281  0.1763 -0.1327
 1551PW      WM 9589   3.880   1.148  12.820  0.1138 -0.0993 -0.3298
 1552PW       W 9590  11.176   0.481   9.152 -0.0169 -0.0522 -0.0629
 1552PW      WP 9591  11.308   0.446   9.184 -0.1696 -0.3386  0.2832
 1552PW      WM 9592  11.126   0.473   9.282 -0.4575  0.0620 -0.2172
 1553PW       W 9593   1.794   7.130  11.800  0.1299  0.2275  0.2346
 1553PW      WP 9594   1.777   7.134  11.661  0.0308 -0.3342  0.2218
 1553PW      WM 9595   1.895   7.198  11.869  0.3764  0.0129  0.0935
 1554PW       W 9596   0.536  11.483   2.979 -0.1141 -0.3393 -0.2147
 1554PW      WP 9597   0.552  11.585   3.074  0.0186 -0.5535 -0.0022
 1554PW      WM 9598   0.408  11.483   2.923 -0.0845  0.1759 -0.3126
 1555PW       W 9599  10.324  10.914   4.640  0.4575 -0.0708  0.1713
 1555PW      WP 9600  10.233  10.808   4.652  0.1696  0.1397 -0.0645
 1555PW      WM 9601  10.266  11.026   4.580  0.0860 -0.3591 -0.0337
 1556PW       W 9602   0.771   5.876   9.712 -0.0015  0.0090  0.0711
 1556PW      WP 9603   0.741   6.010   9.684  0.1748 -0.0074 -0.2143
 1556PW      WM 9604   0.828   5.828   9.831  0.1585  0.2928  0.1121
 1557PW       W 9605   6.763  11.266  11.861  0.2469 -0.4442 -0.3738
 1557PW      WP 9606   6.865  11.189  11.918 -0.2972 -0.5852  0.4907
 1557PW      WM 9607   6.887  11.322  11.829  0.2710 -0.0243  0.3478
 1558PW       W 9608   1.967   9.736   0.506  0.2126  0.1260  0.0842
 1558PW      WP 9609   1.983   9.807   0.625 -0.2736  0.2625  0.0748
 1558PW      WM 9610   1.966   9.615   0.577 -0.1562 -0.1562 -0.3718
 1559PW       W 9611   3.906   9.907  10.930  0.1718  0.1906 -0.2516
 1559PW      WP 9612   3.781   9.932  10.872 -0.1274 -0.7992 -0.1215
 1559PW      WM 9613   3.892   9.938  11.066  0.3126  0.2374 -0.2466
 1560PW       W 9614   3.528  10.743   9.314  0.1721  0.2882 -0.1191
 1560PW      WP 9615   3.637  10.771   9.397 -0.0307  0.0871  0.2280
 1560PW      WM 9616   3.490  10.789   9.188  0.3698 -0.2355 -0.3898
 1561PW       W 9617   3.401  12.072  11.373  0.5148  0.0410  0.0450
 1561PW      WP 9618   3.385  12.086  11.511  0.0652 -0.1158  0.0161
 1561PW      WM 9619   3.445  11.948  11.326  0.5366  0.0129  0.1384
 1562PW       W 9620   4.336   4.087  10.981  0.2892  0.4200 -0.0554
 1562PW      WP 9621   4.198   4.062  10.984  0.2992  0.3681 -0.0162
 1562PW      WM 9622   4.359   4.100  11.119 -0.0162 -0.0186  0.0485
 1563PW       W 9623   9.754  12.135   9.843  0.0382  0.4817 -0.0637
 1563PW      WP 9624   9.857  12.196   9.771 -0.1202  0.4832 -0.2939
 1563PW      WM 9625   9.692  12.015   9.807  0.0661  0.3838  0.1988
 1564PW       W 9626   7.864   0.626   8.423 -0.0592 -0.0285  0.2975
 1564PW      WP 9627   7.925   0.511   8.370 -0.2671  0.0277 -0.0861
 1564PW      WM 9628   7.902   0.491   8.418 -0.4556 -0.1591 -0.9196
 1565PW       W 9629   5.945  10.116  10.426 -0.0238 -0.1594  0.2078
 1565PW      WP 9630   5.844  10.024  10.454  0.1514 -0.4524 -0.0883
 1565PW      WM 9631   5.871  10.096  10.543 -0.5580  0.5547  0.0267
 1566PW       W 9632   0.272  12.014   4.422 -0.1860 -0.1372 -0.0966
 1566PW      WP 9633   0.240  12.111   4.326 -0.0149 -0.0123 -0.0291
 1566PW      WM 9634   0.173  11.917   4.442 -0.1477 -0.2097 -0.2565
 1567PW       W 9635  11.905  11.243  10.447  0.0655 -0.1595  0.3212
 1567PW      WP 9636  11.927  11.194  10.317 -0.2430  0.3666  0.0562
 1567PW      WM 9637  11.847  11.354  10.509 -0.4255 -0.1741 -0.0806
 1568PW       W 9638   4.398   8.377   8.980 -0.2462 -0.2911 -0.2164
 1568PW      WP 9639   4.487   8.484   8.981  0.1815 -0.6172  0.4914
 1568PW      WM 9640   4.343   8.483   9.053  0.4678 -0.3781  0.5164
 1569PW       W 9641   4.615   8.069   9.351 -0.2973 -0.1154 -0.0512
 1569PW      WP 9642   4.499   8.146   9.367 -0.2179  0.0383 -0.1969
 1569PW      WM 9643   4.714   8.134   9.276 -0.1113 -0.1095  0.1929
 1570PW       W 9644   4.096   3.857  11.639  0.5691  0.4514 -0.0045
 1570PW      WP 9645   4.143   3.748  11.564  0.1396  0.0639  0.2633
 1570PW      WM 9646   4.188   3.900  11.735  0.6255  0.1860  0.0651
 1571PW       W 9647   1.117   1.812  10.460  0.1922 -0.1389  0.0590
 1571PW      WP 9648   1.154   1.803  10.595  0.1166 -0.0678  0.0852
 1571PW      WM 9649   1.000   1.879  10.420  0.4013  0.1071 -0.1564
 1572PW       W 9650  10.628   9.792   1.486  0.3093 -0.6091  0.2803
 1572PW      WP 9651  10.503   9.807   1.548  0.3700 -0.1284  0.3115
 1572PW      WM 9652  10.686   9.885   1.574  0.3492 -0.3176 -0.0432
 1573PW       W 9653   3.367   4.949   4.412 -0.1223  0.5609  0.5563
 1573PW      WP 9654   3.243   4.890   4.383  0.2313 -0.0199  0.1027
 1573PW      WM 9655   3.343   5.028   4.299  0.4509  0.0037  0.0057
 1574PW       W 9656   7.807   8.312   1.741  0.2643 -0.0641  0.2358
 1574PW      WP 9657   7.795   8.451   1.752 -0.2695 -0.0888  0.0907
 1574PW      WM 9658   7.838   8.254   1.864 -0.2755 -0.2919  0.2775
 1575PW       W 9659   0.530   2.009   3.809  0.1913  0.1110 -0.1442
 1575PW      WP 9660   0.596   1.983   3.930 -0.1693 -0.2026 -0.0030
 1575PW      WM 9661   0.400   2.041   3.768  0.0855 -0.1800 -0.0515
 1576PW       W 9662   8.428   0.155   4.297  0.0457 -0.0658  0.3433
 1576PW      WP 9663   8.461   0.043   4.220 -0.1773  0.1224 -0.0451
 1576PW      WM 9664   8.520   0.187   4.397 -0.0703 -0.1942  0.4922
 1577PW       W 9665   9.356   2.075   0.100 -0.3283 -0.3881 -0.1010
 1577PW      WP 9666   9.448   2.043   0.202 -0.1125 -0.0398 -0.1786
 1577PW      WM 9667   9.370   2.208   0.060  0.1989 -0.3068  0.2851
 1578PW       W 9668   6.679   6.196  11.166  0.2844  0.1868  0.5397
 1578PW      WP 9669   6.562   6.135  11.120  0.0930  0.6520  0.3719
 1578PW      WM 9670   6.671   6.219  11.304 -0.3953 -0.1943  0.5853
 1579PW       W 9671   6.780   4.267  10.523 -0.1666 -0.0439 -0.1257
 1579PW      WP 9672   6.704   4.205  10.623 -0.0791  0.2175  0.1102
 1579PW      WM 9673   6.725   4.159  10.454 -0.1934 -0.2667  0.2319
 1580PW       W 9674   9.886  10.030   0.338  0.0251 -0.1346  0.6884
 1580PW      WP 9675  10.023   9.998   0.338  0.0269 -0.2106 -0.1032
 1580PW      WM 9676   9.771   9.954   0.359 -0.4950  0.3112 -0.2441
 1581PW       W 9677   9.084   8.810   1.841 -0.0242  0.1168 -0.0664
 1581PW      WP 9678   8.958   8.855   1.881 -0.1499 -0.1399 -0.1630
 1581PW      WM 9679   8.977   8.898   1.860 -0.1139 -0.0063  0.0050
 1582PW       W 9680   8.917   7.411   3.443  0.1087 -0.2432 -0.5221
 1582PW      WP 9681   9.056   7.412   3.421  0.1200 -0.0575 -0.4534
 1582PW      WM 9682   8.799   7.337   3.435 -0.0641 -0.0222 -0.1442
 1583PW       W 9683   5.144   1.408  11.874  0.6417 -0.3582 -0.2355
 1583PW      WP 9684   5.062   1.328  11.793 -0.1606 -0.2592  0.4128
 1583PW      WM 9685   5.103   1.315  11.970  0.2441  0.3782  0.3655
 1584PW       W 9686   9.396   0.006   4.532  0.2617  0.0708  0.2617
 1584PW      WP 9687   9.279   0.074   4.568  0.1049 -0.1860  0.2518
 1584PW      WM 9688   9.468  -0.028   4.417  0.0989  0.2593  0.0989
 1585PW       W 9689   4.395   6.450   2.973  0.2145 -0.3875  0.3203
 1585PW      WP 9690   4.344   6.351   2.889 -0.0956 -0.0375  0.0825
 1585PW      WM 9691   4.470   6.442   3.091  0.1892 -0.3841  0.3365
 1586PW       W 9692   2.349  11.810  12.673  0.3135 -0.0460 -0.1316
 1586PW      WP 9693   2.388  11.895  12.569 -0.0480  0.2618 -0.0249
 1586PW      WM 9694   2.279  11.694  12.708  0.5918 -0.3672 -0.5819
 1587PW       W 9695   1.509   8.885   9.212  0.2664  0.0657 -0.0371
 1587PW      WP 9696   1.639   8.851   9.174  0.2607 -0.2759  0.2167
 1587PW      WM 9697   1.534   8.836   9.341  0.4304  0.1592 -0.0317
 1588PW       W 9698   7.781   9.739  12.567  0.1983  0.0798  0.7144
 1588PW      WP 9699   7.710   9.630  12.621 -0.1181 -0.3624 -0.4357
 1588PW      WM 9700   7.708   9.847  12.515 -0.3571 -0.4009  0.4294
 1589PW       W 9701   0.322   1.143  10.667  0.0757  0.0641  0.2521
 1589PW      WP 9702   0.333   1.009  10.704  0.0538 -0.0269 -0.0647
 1589PW      WM 9703   0.448   1.122  10.725 -0.0926  0.2236  0.6960
 1590PW       W 9704  11.975   3.958   4.096 -0.0387  0.1117  0.5321
 1590PW      WP 9705  11.862   3.887   4.056 -0.0086  0.0872  0.4888
 1590PW      WM 9706  12.087   3.874   4.093 -0.0808  0.0048 -0.7334
 1591PW       W 9707   3.257   3.041   0.469 -0.2409  0.5267 -0.3322
 1591PW      WP 9708   3.245   2.939   0.374 -0.0073 -0.0483  0.2133
 1591PW      WM 9709   3.153   3.005   0.555 -0.0751  0.3121 -0.2163
 1592PW       W 9710   6.892   0.809  11.410 -0.2730 -0.0065  0.0296
 1592PW      WP 9711   6.872   0.686  11.474  0.7652 -0.1584  0.1617
 1592PW      WM 9712   6.901   0.937  11.467  0.0985  0.0508 -0.1416
 1593PW       W 9713   2.957   8.631   0.418 -0.4241  0.0765 -0.5340
 1593PW      WP 9714   3.000   8.680   0.294  0.9149 -0.2327 -0.2706
 1593PW      WM 9715   2.857   8.556   0.356 -0.2666 -0.4266 -0.2098
 1594PW       W 9716   2.711   9.945   1.334  0.1407  0.0500  0.1911
 1594PW      WP 9717   2.751   9.862   1.228 -0.6197  0.0185 -0.1012
 1594PW      WM 9718   2.642   9.825   1.353  0.2226 -0.0640 -0.1812
 1595PW       W 9719   8.278   8.040   4.522  0.4983 -0.2535  0.3196
 1595PW      WP 9720   8.161   8.063   4.594  0.3743  0.3486 -0.0390
 1595PW      WM 9721   8.309   8.036   4.658  0.2456  0.3249  0.4067
 1596PW       W 9722   5.754   3.283  10.231 -0.0981 -0.6466 -0.5191
 1596PW      WP 9723   5.890   3.274  10.200  0.1695 -0.2491  0.3567
 1596PW      WM 9724   5.781   3.371  10.125  0.1118 -0.0624 -0.0162
 1597PW       W 9725   1.630   7.063   3.086 -0.0343 -0.5431 -0.3902
 1597PW      WP 9726   1.664   6.930   3.111  0.5770 -0.2956  0.3033
 1597PW      WM 9727   1.714   7.174   3.068 -0.4078 -0.0939  0.3948
 1598PW       W 9728   2.855   5.953   1.207  0.0018  0.2802 -0.1153
 1598PW      WP 9729   2.910   5.969   1.080 -0.2039 -0.6538 -0.3571
 1598PW      WM 9730   2.746   6.035   1.239 -0.1466  0.2394 -0.4895
 1599PW       W 9731   4.823   8.795   8.865  0.4026  0.2636 -0.0429
 1599PW      WP 9732   4.896   8.849   8.972 -0.1750  0.0585  0.4807
 1599PW      WM 9733   4.740   8.903   8.832  0.1443  0.1319  0.1575
 1600PW       W 9734   9.077   2.424   3.846 -0.3314  0.2752  0.0416
 1600PW      WP 9735   8.996   2.323   3.899  0.2338 -0.3068 -0.1445
 1600PW      WM 9736   9.152   2.382   3.957  0.3209 -0.6375 -0.6712
 1601PW       W 9737  10.572   5.306  10.858 -0.4456 -0.3478  0.2382
 1601PW      WP 9738  10.596   5.266  10.990 -0.2383  0.0719  0.3364
 1601PW      WM 9739  10.463   5.350  10.935 -0.2197  0.0756  0.3319
 1602PW       W 9740   2.664   3.131  11.192 -0.6242  0.0010  0.1838
 1602PW      WP 9741   2.660   3.199  11.069  0.1423  0.4079  0.3552
 1602PW      WM 9742   2.634   3.165  11.324  0.1365 -0.3019  0.4552
 1603PW       W 9743   6.506   4.756   1.475 -0.3586 -0.4338  0.0247
 1603PW      WP 9744   6.550   4.793   1.347 -0.0216 -0.0008  0.2504
 1603PW      WM 9745   6.636   4.706   1.462 -0.2026 -0.1410  0.3470
 1604PW       W 9746   7.742   7.381  12.246 -0.1606 -0.0029 -0.2501
 1604PW      WP 9747   7.881   7.364  12.260 -0.2675 -0.4081  0.6307
 1604PW      WM 9748   7.713   7.470  12.141  0.0185 -0.2021 -0.4751
 1605PW       W 9749   8.236  11.326  11.639  0.2052 -0.0207 -0.0453
 1605PW      WP 9750   8.207  11.189  11.629  0.1331  0.0042 -0.1851
 1605PW      WM 9751   8.327  11.317  11.533  0.1254 -0.0472 -0.1124
 1606PW       W 9752   4.404   5.283  10.011  0.2082  0.5525  0.1099
 1606PW      WP 9753   4.497   5.226  10.099  0.2633 -0.3208 -0.4436
 1606PW      WM 9754   4.285   5.354   9.990 -0.3719 -0.2703  0.3467
 1607PW       W 9755   0.981  11.355   0.323  0.0711  0.0974 -0.2610
 1607PW      WP 9756   0.861  11.305   0.375  0.2013 -0.2266 -0.2583
 1607PW      WM 9757   0.990  11.326   0.460 -0.2166  0.0228 -0.2561
 1608PW       W 9758   9.316   2.604   4.321 -0.5078  0.4472 -0.2642
 1608PW      WP 9759   9.237   2.499   4.271  0.1798 -0.1340 -0.2168
 1608PW      WM 9760   9.263   2.581   4.193 -0.2628 -0.3493 -0.2506
 1609PW       W 9761   5.236   6.726   2.203  0.3060 -0.1706 -0.2602
 1609PW      WP 9762   5.110   6.684   2.247  0.3411  0.5906  0.7470
 1609PW      WM 9763   5.360   6.790   2.185  0.3159 -0.1625 -0.1717
 1610PW       W 9764   4.782   3.262   8.573  0.5676  0.1370  0.0903
 1610PW      WP 9765   4.757   3.134   8.625  0.2094  0.1833  0.0455
 1610PW      WM 9766   4.832   3.390   8.595  0.1807  0.3662 -0.2855
 1611PW       W 9767   4.153  10.196   9.622  0.2198 -0.0628  0.0003
 1611PW      WP 9768   4.244  10.091   9.601  0.0420 -0.1384 -0.4389
 1611PW      WM 9769   4.060  10.215   9.520 -0.2408  0.0614  0.4235
 1612PW       W 9770   6.724   9.809  13.398  0.0925 -0.0440 -0.2446
 1612PW      WP 9771   6.714   9.787  13.260  0.3826 -0.2025 -0.2453
 1612PW      WM 9772   6.858   9.767  13.401 -0.0144 -0.4123 -0.3705
 1613PW       W 9773   2.821  10.842   9.699  0.0406 -0.2176 -0.0254
 1613PW      WP 9774   2.873  10.863   9.570  0.2069 -0.0026  0.0729
 1613PW      WM 9775   2.799  10.712   9.744 -0.0814 -0.1670  0.0606
 1614PW       W 9776   2.875   2.131  10.121 -0.3036 -0.0114 -0.2452
 1614PW      WP 9777   2.864   2.270  10.118 -0.0568  0.0139 -0.1722
 1614PW      WM 9778   2.841   2.039  10.021 -0.0548  0.0899 -0.4276
 1615PW       W 9779   9.897   9.197   3.106 -0.2845 -0.0629  0.1341
 1615PW      WP 9780   9.818   9.271   3.195 -0.0196  0.1932  0.1648
 1615PW      WM 9781   9.981   9.309   3.102 -0.3419 -0.0239 -0.0107
 1616PW       W 9782   3.969   3.885   9.751  0.2453 -0.3106 -0.0244
 1616PW      WP 9783   4.030   3.779   9.818 -0.1328 -0.4541  0.1042
 1616PW      WM 9784   3.919   3.972   9.654 -0.5310 -0.4497  0.2192
 1617PW       W 9785   6.071   1.106   9.544  0.2836 -0.1371 -0.0001
 1617PW      WP 9786   6.115   1.105   9.677 -0.2719  0.1146  0.2036
 1617PW      WM 9787   6.038   1.242   9.536  0.3783 -0.1284 -0.2968
 1618PW       W 9788   7.406   2.488   5.198  0.1114  0.7417  0.0649
 1618PW      WP 9789   7.284   2.467   5.132 -0.0190  0.7614  0.2921
 1618PW      WM 9790   7.466   2.364   5.172 -0.6566  0.3795 -0.1513
 1619PW       W 9791   6.980   1.883   2.793  0.1226  0.0679  0.5758
 1619PW      WP 9792   6.913   1.770   2.839  0.2700 -0.0822  0.4289
 1619PW      WM 9793   6.966   1.866   2.931 -0.1322 -0.3337  0.5089
 1620PW       W 9794   1.732  11.284   0.939  0.2387  0.4569 -0.2619
 1620PW      WP 9795   1.707  11.332   0.809  0.3814  0.4033 -0.3103
 1620PW      WM 9796   1.827  11.183   0.918  0.1236  0.2541  0.1398
 1621PW       W 9797   2.691   2.712  12.096  0.0372 -0.5870 -0.2231
 1621PW      WP 9798   2.728   2.748  11.965  0.0597  0.3557  0.0012
 1621PW      WM 9799   2.706   2.573  12.091 -0.1719 -0.6055 -0.3942
 1622PW       W 9800   9.000   3.716   3.332  0.1225  0.0729  0.2032
 1622PW      WP 9801   8.990   3.690   3.195 -0.0191 -0.3212  0.2811
 1622PW      WM 9802   9.077   3.777   3.431 -0.0243 -0.0096  0.3723
 1623PW       W 9803   8.940   8.948  10.114  0.1066  0.1524 -0.1715
 1623PW      WP 9804   8.930   9.075  10.057  0.7054  0.4358  0.2924
 1623PW      WM 9805   9.075   8.980  10.095  0.2159  0.1136  0.4313
 1624PW       W 9806   5.375   9.282   9.376  0.3064 -0.0377  0.2665
 1624PW      WP 9807   5.349   9.365   9.266 -0.1966 -0.2417  0.2192
 1624PW      WM 9808   5.514   9.292   9.366  0.3175 -0.0472  0.4044
 1625PW       W 9809  11.553   3.569   8.992  0.0507 -0.0666 -0.4452
 1625PW      WP 9810  11.657   3.635   9.058 -0.2524 -0.1645  0.1673
 1625PW      WM 9811  11.442   3.650   8.962  0.2264  0.5246  0.3478
 1626PW       W 9812   1.081   4.796  11.275 -0.2116  0.0973 -0.1208
 1626PW      WP 9813   1.158   4.907  11.242  0.0696  0.0182  0.2393
 1626PW      WM 9814   1.085   4.893  11.375 -0.1332 -0.3116  0.2880
 1627PW       W 9815   0.810   7.410   3.847  0.0634 -0.1647  0.1223
 1627PW      WP 9816   0.890   7.523   3.867 -0.2411  0.2774 -0.8693
 1627PW      WM 9817   0.671   7.406   3.863 -0.0678  0.0374 -0.7259
 1628PW       W 9818   3.167   2.603   0.843  0.0767 -0.3144  0.1637
 1628PW      WP 9819   3.256   2.648   0.744 -0.3103  0.2847  0.0617
 1628PW      WM 9820   3.172   2.724   0.914  0.0143 -0.1583 -0.0889
 1629PW       W 9821  12.043   9.218  10.820 -0.1872 -0.1701 -0.5197
 1629PW      WP 9822  11.946   9.305  10.767 -0.3079 -0.0236 -0.0786
 1629PW      WM 9823  12.054   9.293  10.702  0.2407  0.1603 -0.2871
 1630PW       W 9824  11.535   7.293   2.602  0.2430 -0.4467  0.1671
 1630PW      WP 9825  11.600   7.298   2.478 -0.0667  0.5362  0.0006
 1630PW      WM 9826  11.584   7.380   2.700 -0.0999 -0.2861  0.2024
 1631PW       W 9827   7.100   4.586   8.657  0.0288 -0.0308 -0.0741
 1631PW      WP 9828   7.103   4.446   8.655 -0.0678 -0.0469  0.3628
 1631PW      WM 9829   7.204   4.589   8.751 -0.2744 -0.2148  0.2768
 1632PW       W 9830   1.616   0.351   2.898  0.2205 -0.1316  0.2714
 1632PW      WP 9831   1.607   0.343   3.037  0.0558  0.2943  0.2918
 1632PW      WM 9832   1.588   0.238   2.821  0.7164 -0.4444  0.5182
 1633PW       W 9833  11.071   3.513   0.906  0.1606 -0.1329  0.1117
 1633PW      WP 9834  11.039   3.638   0.851  0.4551 -0.3286 -0.5646
 1633PW      WM 9835  11.127   3.391   0.948  0.0328 -0.3755 -0.3797
 1634PW       W 9836  12.113   2.895   3.035  0.0005 -0.0770 -0.0162
 1634PW      WP 9837  12.086   2.808   3.141 -0.1418 -0.1076 -0.0762
 1634PW      WM 9838  12.045   2.994   2.964 -0.0248 -0.0707  0.0166
 1635PW       W 9839   4.819   2.124  11.197 -0.0775 -0.2350  0.2957
 1635PW      WP 9840   4.705   2.044  11.199 -0.2813  0.0426  0.0778
 1635PW      WM 9841   4.821   2.092  11.334  0.2686 -0.1794  0.3091
 1636PW       W 9842   4.962   9.557  12.101  0.3992 -0.0648 -0.4403
 1636PW      WP 9843   4.905   9.436  12.142  0.2897  0.1102 -0.0519
 1636PW      WM 9844   5.075   9.502  12.162 -0.1768 -0.6631  0.1683
 1637PW       W 9845   3.135   8.874   4.298 -0.1561 -0.1238  0.1343
 1637PW      WP 9846   3.228   8.776   4.261 -0.1455 -0.1094  0.1224
 1637PW      WM 9847   3.064   8.914   4.184  0.0637 -0.2065 -0.0362
 1638PW       W 9848   0.956   9.362   2.244 -0.4591 -0.2931 -0.2773
 1638PW      WP 9849   0.823   9.339   2.283 -0.3535 -0.3592  0.0673
 1638PW      WM 9850   0.982   9.321   2.113  0.2871 -0.0778 -0.2172
 1639PW       W 9851  11.532  10.799  10.059 -0.1163  0.0610 -0.2769
 1639PW      WP 9852  11.545  10.929  10.109  0.1157 -0.1982  0.3945
 1639PW      WM 9853  11.610  10.739   9.959  0.3533 -0.1717  0.2052
 1640PW       W 9854   8.076   0.923  13.268  0.3260  0.0955 -0.0911
 1640PW      WP 9855   8.146   1.038  13.228 -0.0233  0.2791 -0.1968
 1640PW      WM 9856   7.963   0.954  13.192  0.1324 -0.3884 -0.0209
 1641PW       W 9857  10.268   1.805   9.214 -0.5805  0.3827 -0.4440
 1641PW      WP 9858  10.302   1.932   9.166  0.0691  0.2838 -0.2999
 1641PW      WM 9859  10.219   1.685   9.161  0.3021 -0.3788  0.2762
 1642PW       W 9860  11.723   9.646   2.786  0.5565  0.0226 -0.0036
 1642PW      WP 9861  11.707   9.707   2.911  0.1998 -0.1349  0.0336
 1642PW      WM 9862  11.836   9.563   2.796  0.4132 -0.1513  0.2135
 1643PW       W 9863   0.317   3.107  10.008  0.1379  0.1354  0.0535
 1643PW      WP 9864   0.306   3.029  10.124 -0.5737  0.2320  0.0779
 1643PW      WM 9865   0.187   3.073   9.970  0.2163 -0.2141  0.0840
 1644PW       W 9866   0.022   0.660   1.045  0.1101  0.0326 -0.0689
 1644PW      WP 9867  -0.044   0.659   0.921 -0.1649  0.4796  0.0606
 1644PW      WM 9868   0.046   0.543   1.118 -0.0249  0.0686  0.0354
 1645PW       W 9869   6.980   0.846  10.051  0.0425  0.0285  0.0783
 1645PW      WP 9870   7.117   0.822  10.035  0.0942 -0.0983  0.6078
 1645PW      WM 9871   6.926   0.904  10.167 -0.5115  0.4812 -0.3751
 1646PW       W 9872   2.304   2.450   4.110 -0.0304  0.1687  0.0058
 1646PW      WP 9873   2.375   2.509   4.215  0.0118  0.1274  0.0002
 1646PW      WM 9874   2.295   2.564   4.029 -0.0055  0.2795  0.1573
 1647PW       W 9875   9.301   0.317  11.099 -0.3208 -0.2980 -0.2447
 1647PW      WP 9876   9.218   0.232  11.027 -0.1779 -0.4977 -0.1783
 1647PW      WM 9877   9.384   0.429  11.084  0.2379 -0.5777  0.4672
 1648PW       W 9878   0.053   4.560   0.595  0.1679 -0.0043  0.0365
 1648PW      WP 9879   0.144   4.559   0.489  0.1805  0.1955  0.0451
 1648PW      WM 9880   0.010   4.484   0.705  0.2601 -0.0638  0.0318
 1649PW       W 9881   3.604   1.601   2.993  0.1710 -0.1944 -0.4298
 1649PW      WP 9882   3.645   1.480   2.937  0.0825 -0.3101 -0.2492
 1649PW      WM 9883   3.605   1.740   2.978  0.0588 -0.0429  0.5846
 1650PW       W 9884   1.813   6.535   4.560 -0.1688 -0.2762  0.2762
 1650PW      WP 9885   1.829   6.406   4.612 -0.0666 -0.1104  0.6786
 1650PW      WM 9886   1.870   6.514   4.434 -0.4847 -0.5996  0.1784
 1651PW       W 9887   4.817   8.565   4.674 -0.1546 -0.3111 -0.0569
 1651PW      WP 9888   4.870   8.643   4.777  0.5084 -0.1863 -0.4708
 1651PW      WM 9889   4.956   8.555   4.683 -0.0981  0.3569  0.0924
 1652PW       W 9890   4.388   9.303   4.440  0.0050  0.0395  0.1452
 1652PW      WP 9891   4.312   9.235   4.344  0.1715 -0.0914  0.1041
 1652PW      WM 9892   4.259   9.356   4.442  0.2482  0.6814 -0.0475
 1653PW       W 9893   2.311   4.815   9.705  0.0687 -0.3102  0.6115
 1653PW      WP 9894   2.307   4.786   9.568 -0.0764 -0.4666  0.6476
 1653PW      WM 9895   2.234   4.873   9.806  0.1101 -0.2525  0.6100
 1654PW       W 9896   1.246   5.594   3.225  0.1577 -0.0721 -0.3183
 1654PW      WP 9897   1.250   5.636   3.091  0.1504  0.0147 -0.2915
 1654PW      WM 9898   1.385   5.587   3.215  0.1937  0.0759  0.0357
 1655PW       W 9899   2.902   8.985   2.085  0.3658 -0.2193  0.1161
 1655PW      WP 9900   2.910   9.010   1.947  0.2426 -0.3822  0.0772
 1655PW      WM 9901   2.998   9.086   2.082 -0.2044  0.3503 -0.0346
 1656PW       W 9902   2.532   8.530   2.742  0.0652  0.2824  0.0470
 1656PW      WP 9903   2.524   8.395   2.780 -0.0961  0.4180  0.5344
 1656PW      WM 9904   2.532   8.602   2.863 -0.2414  0.6045 -0.1354
 1657PW       W 9905   2.382   0.046   2.390  0.2866  0.4317 -0.0134
 1657PW      WP 9906   2.274  -0.042   2.396  0.3766  0.3161 -0.0710
 1657PW      WM 9907   2.448   0.123   2.487  0.0920  0.4529  0.1053
 1658PW       W 9908   6.607   5.827   9.719 -0.2523  0.0027 -0.1441
 1658PW      WP 9909   6.658   5.749   9.614 -0.0711  0.2216 -0.2221
 1658PW      WM 9910   6.502   5.846   9.628 -0.2978  0.1338 -0.0650
 1659PW       W 9911  10.638   6.655   1.383 -0.0174 -0.2672  0.1617
 1659PW      WP 9912  10.736   6.754   1.367 -0.2706  0.0091  0.2941
 1659PW      WM 9913  10.689   6.624   1.509  0.2742  0.2382  0.1826
 1660PW       W 9914   5.303   6.253   4.302  0.2653 -0.0130 -0.4818
 1660PW      WP 9915   5.240   6.323   4.405 -0.2060 -0.7877 -0.2072
 1660PW      WM 9916   5.432   6.205   4.275  0.3262 -0.1341 -0.0092
 1661PW       W 9917   5.277   0.762  13.012  0.1021  0.1466 -0.2401
 1661PW      WP 9918   5.221   0.890  13.023 -0.2534  0.0023 -0.3225
 1661PW      WM 9919   5.396   0.693  13.040 -0.2019 -0.1613  0.3832
 1662PW       W 9920  10.394   5.971   0.015 -0.0512  0.0767  0.2501
 1662PW      WP 9921  10.328   6.061   0.099  0.1892  0.3803  0.1216
 1662PW      WM 9922  10.427   6.031   0.137 -0.4494  0.6814  0.0785
 1663PW       W 9923   2.756   4.318   1.517 -0.4729 -0.4010 -0.5438
 1663PW      WP 9924   2.788   4.376   1.394  0.3397 -0.0042 -0.1808
 1663PW      WM 9925   2.780   4.438   1.449  0.6926 -0.1551  0.1578
 1664PW       W 9926   8.328   1.080   9.499 -0.3827  0.0282 -0.0848
 1664PW      WP 9927   8.375   1.037   9.624  0.0395  0.2661 -0.1511
 1664PW      WM 9928   8.200   1.077   9.443 -0.2174  0.0015 -0.4786
 1665PW       W 9929   5.515   4.315   8.387  0.0111  0.0588  0.1260
 1665PW      WP 9930   5.556   4.363   8.512 -0.0977 -0.1840  0.2567
 1665PW      WM 9931   5.570   4.186   8.380 -0.0361  0.0228  0.3807
 1666PW       W 9932   6.953   3.225  11.050  0.0166  0.1069  0.5273
 1666PW      WP 9933   7.080   3.210  10.992 -0.2013  0.0587  0.0413
 1666PW      WM 9934   6.845   3.296  10.997  0.1344  0.1155  0.2904
 1667PW       W 9935   5.812   2.477   9.291  0.2949 -0.4861  0.1260
 1667PW      WP 9936   5.947   2.456   9.260  0.3013  0.0705 -0.3118
 1667PW      WM 9937   5.771   2.348   9.327 -0.2619 -0.3775 -0.0692
 1668PW       W 9938  10.538   9.617   0.960  0.1518 -0.2918  0.0074
 1668PW      WP 9939  10.453   9.667   0.860  0.2723  0.5533  0.2866
 1668PW      WM 9940  10.629   9.512   0.941 -0.0095 -0.4030 -0.1714
 1669PW       W 9941   7.015   2.831   4.725 -0.1315 -0.2705 -0.3179
 1669PW      WP 9942   7.064   2.936   4.646  0.9267 -0.5225 -0.0700
 1669PW      WM 9943   6.924   2.861   4.827  0.4041  0.0524  0.0901
 1670PW       W 9944   8.414   3.155   9.766  0.2371 -0.2107  0.1536
 1670PW      WP 9945   8.553   3.143   9.783  0.2566  0.0108  0.1753
 1670PW      WM 9946   8.336   3.204   9.871  0.1521 -0.1727  0.0733
 1671PW       W 9947   1.790   2.397   0.682 -0.6197  0.2465 -0.4158
 1671PW      WP 9948   1.839   2.417   0.812 -0.2251 -0.4097 -0.4461
 1671PW      WM 9949   1.888   2.379   0.584 -0.1510 -0.1826  0.0995
 1672PW       W 9950   5.165  10.390   3.790  0.0527 -0.0331  0.1454
 1672PW      WP 9951   5.110  10.463   3.897 -0.3512  0.3829 -0.3202
 1672PW      WM 9952   5.244  10.284   3.745 -0.0424 -0.1436  0.2366
 1673PW       W 9953   5.967   2.278  12.835 -0.0428 -0.4494 -0.2254
 1673PW      WP 9954   6.038   2.283  12.956 -0.0183  0.2419 -0.2486
 1673PW      WM 9955   6.019   2.243  12.710  0.7317 -0.5177  0.0886
 1674PW       W 9956  11.768   9.281  10.385 -0.0055  0.3254  0.0713
 1674PW      WP 9957  11.778   9.145  10.416  0.1203  0.3365  0.0816
 1674PW      WM 9958  11.704   9.273  10.261  0.2545  0.1334 -0.0565
 1675PW       W 9959  10.115   2.231   2.595  0.0394  0.4707  0.0257
 1675PW      WP 9960  10.005   2.283   2.664 -0.0540  0.0653  0.1987
 1675PW      WM 9961  10.240   2.265   2.542  0.2135  0.3412  0.3379
 1676PW       W 9962  11.630   2.204   1.739  0.0624 -0.4599 -0.1923
 1676PW      WP 9963  11.532   2.230   1.643 -0.1897  0.4606  0.2493
 1676PW      WM 9964  11.715   2.153   1.641  0.3279 -0.2740 -0.0678
 1677PW       W 9965   2.266   4.425   9.441  0.3798  0.0295 -0.1290
 1677PW      WP 9966   2.318   4.460   9.316  0.2660 -0.1249 -0.2216
 1677PW      WM 9967   2.341   4.543   9.438  0.1926  0.1477 -0.3102
 1678PW       W 9968   5.222   8.009   9.342  0.1200  0.1983 -0.1132
 1678PW      WP 9969   5.356   8.006   9.303  0.1715 -0.0891  0.0754
 1678PW      WM 9970   5.095   7.956   9.366  0.1978 -0.2032 -0.5120
 1679PW       W 9971   0.993   0.486  12.159  0.1235  0.2686  0.2152
 1679PW      WP 9972   1.046   0.469  12.288  0.0586 -0.1154  0.1976
 1679PW      WM 9973   0.915   0.602  12.160  0.0584  0.2330 -0.1520
 1680PW       W 9974   8.597   5.901   4.259 -0.0957 -0.2920 -0.1169
 1680PW      WP 9975   8.558   6.030   4.296  0.2965 -0.2168  0.0556
 1680PW      WM 9976   8.547   5.957   4.141  0.3503 -0.0240 -0.1887
 1681PW       W 9977   2.264   4.914   4.078 -0.0830  0.0403  0.0069
 1681PW      WP 9978   2.280   4.863   3.949  0.2344  0.0603  0.0352
 1681PW      WM 9979   2.309   4.985   4.190 -0.2822  0.0591  0.0773
 1682PW       W 9980   8.901  12.078   3.423 -0.6068  0.0588 -0.2053
 1682PW      WP 9981   8.966  12.139   3.532  0.1463 -0.3494 -0.3912
 1682PW      WM 9982   8.868  12.002   3.310 -0.0524 -0.2328 -0.1872
 1683PW       W 9983  10.589   8.185   0.487 -0.1351 -0.3378  0.0749
 1683PW      WP 9984  10.648   8.275   0.577 -0.0617  0.1826 -0.4670
 1683PW      WM 9985  10.670   8.071   0.475  0.2793 -0.0481  0.0178
 1684PW       W 9986   5.893   6.121   2.272  0.0508 -0.1096 -0.4188
 1684PW      WP 9987   5.863   6.219   2.176  0.5224 -0.0703 -0.5419
 1684PW      WM 9988   6.003   6.054   2.218  0.1275 -0.5841  0.2601
 1685PW       W 9989  10.198   6.214   0.412  0.0319 -0.1711 -0.2046
 1685PW      WP 9990  10.122   6.317   0.468 -0.1816 -0.3439 -0.1716
 1685PW      WM 9991  10.286   6.171   0.512  0.0038 -0.3752 -0.2649
 1686PW       W 9992   7.495   4.472  12.721  0.1977 -0.1878 -0.2086
 1686PW      WP 9993   7.422   4.354  12.704  0.3732 -0.3434  0.0879
 1686PW      WM 9994   7.611   4.431  12.788  0.1296  0.0433  0.0607
 1687PW       W 9995  11.021   1.416  12.403  0.3812 -0.0837  0.2276
 1687PW      WP 9996  11.130   1.333  12.430  0.0653 -0.4266  0.5056
 1687PW      WM 9997  11.050   1.290  12.351 -0.1133  0.1147 -0.6258
 1688PW       W 9998   8.962   5.505  10.537  0.5042  0.3795  0.0458
 1688PW      WP 9999   8.837   5.551  10.494 -0.0074 -0.8678  0.0034
 1688PW      WM10000   9.087   5.499  10.473  0.4597 -0.2440 -0.0152
 1689PW       W10001  10.883   3.538   4.062  0.2616  0.2521  0.2589
 1689PW      WP10002  10.768   3.609   4.022 -0.0178 -0.4956 -0.3965
 1689PW      WM10003  10.846   3.514   4.195 -0.3589  0.8002  0.2099
 1690PW       W10004  10.043   6.209  10.641 -0.1507 -0.6927 -0.0920
 1690PW      WP10005   9.931   6.248  10.715 -0.0133  0.1533 -0.2868
 1690PW      WM10006  10.131   6.293  10.711 -0.4007 -0.6581  0.1878
 1691PW       W10007   7.827   3.469   0.570  0.0514 -0.3429 -0.0256
 1691PW      WP10008   7.895   3.404   0.467  0.2355 -0.3830  0.1183
 1691PW      WM10009   7.793   3.424   0.699 -0.0965 -0.0584  0.0396
 1692PW       W10010   0.731   9.884   3.881 -0.2412 -0.2914  0.2680
 1692PW      WP10011   0.657   9.858   3.765 -0.2155 -0.0790  0.2021
 1692PW      WM10012   0.821   9.908   3.985  0.1878  0.1674 -0.1776
 1693PW       W10013   8.305   9.470  12.888  0.3749 -0.9116  0.2937
 1693PW      WP10014   8.291   9.401  12.767  0.5655 -0.1678 -0.1833
 1693PW      WM10015   8.402   9.472  12.988  0.2897 -0.0789  0.3953
 1694PW       W10016  10.179   9.250   0.871  0.5790 -0.4009 -0.2500
 1694PW      WP10017  10.187   9.333   0.759  0.2872  0.2417  0.1761
 1694PW      WM10018  10.104   9.132   0.863  0.4898 -0.3780  0.1221
 1695PW       W10019  11.785   3.035   2.073  0.4105 -0.1094  0.0275
 1695PW      WP10020  11.879   3.071   1.976  0.1688 -0.0716 -0.1971
 1695PW      WM10021  11.665   3.106   2.086  0.4086 -0.1495  0.2510
 1696PW       W10022   0.459   4.512   2.975  0.3061  0.0990 -0.1905
 1696PW      WP10023   0.354   4.604   2.959  0.2007 -0.0512 -0.3766
 1696PW      WM10024   0.398   4.404   3.040  0.0282  0.0730 -0.4869
 1697PW       W10025   7.732   5.632  13.049 -0.2374  0.3893  0.3127
 1697PW      WP10026   7.713   5.505  12.992  0.0945  0.2893  0.4143
 1697PW      WM10027   7.616   5.709  13.033 -0.5763 -0.1181  0.2101
 1698PW       W10028   5.414   6.621   3.473  0.1368  0.3919  0.0656
 1698PW      WP10029   5.517   6.680   3.399  0.3867  0.0301  0.1108
 1698PW      WM10030   5.306   6.708   3.453 -0.0682  0.0869 -0.1953
 1699PW       W10031   9.880   1.540  10.528 -0.0626  0.3201 -0.7489
 1699PW      WP10032   9.987   1.629  10.542  0.2262 -0.0456 -0.5477
 1699PW      WM10033   9.848   1.595  10.652  0.0487 -0.7071 -0.2093
 1700PW       W10034   4.037  10.309  11.220 -0.0619 -0.0586  0.1763
 1700PW      WP10035   3.946  10.268  11.122  0.0760 -0.1514  0.0847
 1700PW      WM10036   4.111  10.231  11.310  0.3851  0.3306  0.1606
 1701PW       W10037  10.125   7.622  12.814  0.0997  0.1641 -0.8654
 1701PW      WP10038  10.179   7.746  12.852 -0.1529 -0.0204  0.3048
 1701PW      WM10039  10.016   7.709  12.828 -0.3627 -0.4539 -0.2878
 1702PW       W10040   5.726   2.343  13.279  0.2673  0.5613  0.2036
 1702PW      WP10041   5.644   2.231  13.298  0.0422  0.6947  0.0448
 1702PW      WM10042   5.864   2.322  13.269  0.2160  0.1701  0.2325
 1703PW       W10043  10.317   8.596   9.212 -0.1382  0.1241 -0.1162
 1703PW      WP10044  10.253   8.593   9.336  0.1162 -0.1108  0.0143
 1703PW      WM10045  10.220   8.537   9.130 -0.4243  0.2785  0.1016
 1704PW       W10046   9.725  11.957   3.254 -0.0506  0.1525  0.3030
 1704PW      WP10047   9.714  11.948   3.115  0.3318  0.6785  0.2257
 1704PW      WM10048   9.811  12.047   3.316 -0.0485  0.1667  0.2798
 1705PW       W10049   8.043   2.152   2.897  0.0300  0.2381  0.2588
 1705PW      WP10050   8.118   2.223   2.802  0.0373 -0.2835 -0.1420
 1705PW      WM10051   8.047   2.211   3.024 -0.1444  0.1176  0.3228
 1706PW       W10052   7.913   0.127   0.715  0.3649 -0.3532 -0.2096
 1706PW      WP10053   7.855   0.098   0.840  0.0633  0.3899 -0.1502
 1706PW      WM10054   8.001   0.045   0.788  0.0104 -0.5023  0.0673
 1707PW       W10055   1.848   0.861   2.315 -0.3018 -0.0275  0.4436
 1707PW      WP10056   1.837   0.968   2.405  0.1947  0.3851  0.0499
 1707PW      WM10057   1.889   0.991   2.283 -0.2470 -0.2207 -0.3799
 1708PW       W10058  10.378  -0.006   2.199 -0.4842  0.2309 -0.2269
 1708PW      WP10059  10.296  -0.103   2.258 -0.4101  0.2090 -0.1586
 1708PW      WM10060  10.381   0.129   2.164  0.3533  0.3920  0.3258
 1709PW       W10061  12.028  11.022   2.215  0.6689  0.0010  0.1594
 1709PW      WP10062  11.994  10.973   2.088 -0.2151  0.2412  0.2675
 1709PW      WM10063  11.936  10.995   2.318  0.3561  0.4677  0.0169
 1710PW       W10064   5.953   1.435  12.299  0.2822 -0.0245 -0.0614
 1710PW      WP10065   5.907   1.546  12.369 -0.4250 -0.2926 -0.0591
 1710PW      WM10066   6.067   1.426  12.219  0.2667 -0.5900 -0.0400
 1711PW       W10067   8.093   5.961   0.868 -0.1684  0.3428  0.1757
 1711PW      WP10068   8.068   6.047   0.760  0.1889  0.0082 -0.1881
 1711PW      WM10069   8.158   5.852   0.926 -0.4270  0.2368  0.2730
 1712PW       W10070   9.025   0.792  10.098 -0.3890  0.0076 -0.0306
 1712PW      WP10071   9.104   0.879  10.022 -0.3338  0.0408  0.0631
 1712PW      WM10072   9.031   0.696  10.200  0.2072  0.3143  0.2501
 1713PW       W10073  11.032   4.536   4.093 -0.0708 -0.1455  0.0382
 1713PW      WP10074  11.063   4.400   4.103  0.1222 -0.1065 -0.0026
 1713PW      WM10075  10.900   4.495   4.074 -0.0908  0.0745 -0.3489
 1714PW       W10076   0.415   2.333   0.668  0.6531 -0.1251  0.2437
 1714PW      WP10077   0.390   2.378   0.799  0.4658 -0.0801  0.1933
 1714PW      WM10078   0.480   2.455   0.692 -0.2075  0.3607  0.3044
 1715PW       W10079   8.371   7.547   4.676  0.1284  0.3983  0.1973
 1715PW      WP10080   8.472   7.543   4.580 -0.2996 -0.1528 -0.2707
 1715PW      WM10081   8.261   7.460   4.683  0.7512 -0.4402  0.3007
 1716PW       W10082   8.912   3.893  10.116  0.0215  0.3575  0.2795
 1716PW      WP10083   8.926   3.781  10.199 -0.3199 -0.1429 -0.2969
 1716PW      WM10084   9.012   3.929  10.026 -0.5048 -0.0835 -0.5390
 1717PW       W10085   8.634   8.227   4.199  0.0588  0.5021 -0.1928
 1717PW      WP10086   8.634   8.334   4.289 -0.3365  0.4764 -0.1518
 1717PW      WM10087   8.568   8.198   4.079 -0.2959 -0.4815  0.1854
 1718PW       W10088  12.008   6.732   1.053 -0.1675 -0.2217  0.2001
 1718PW      WP10089  12.041   6.644   0.948 -0.1283  0.2696 -0.2176
 1718PW      WM10090  12.148   6.741   1.053 -0.1230 -0.7504  0.2168
 1719PW       W10091   4.290   2.867  12.635 -0.1968 -0.1026 -0.0326
 1719PW      WP10092   4.306   2.761  12.725 -0.1444 -0.4602 -0.4419
 1719PW      WM10093   4.306   2.974  12.546 -0.0075 -0.3592 -0.3195
 1720PW       W10094   4.048   3.722  12.237 -0.6912 -0.2958  0.1433
 1720PW      WP10095   4.129   3.618  12.282 -0.6329 -0.2415  0.1654
 1720PW      WM10096   3.943   3.644  12.186 -0.6092 -0.1295 -0.3108
 1721PW       W10097  11.067   3.229   3.096  0.4817  0.3294  0.3111
 1721PW      WP10098  10.981   3.119   3.109  0.6601  0.1071 -0.2385
 1721PW      WM10099  11.031   3.221   2.961  0.3843 -0.4714  0.3577
 1722PW       W10100  10.897   4.749  11.143  0.0366  0.3968 -0.0559
 1722PW      WP10101  11.011   4.691  11.202 -0.1982 -0.3088 -0.2490
 1722PW      WM10102  10.985   4.687  11.053 -0.3712  0.0792 -0.2493
 1723PW       W10103   9.582   6.713   5.710  0.5613  0.1811  0.1672
 1723PW      WP10104   9.597   6.585   5.654 -0.5871  0.0033  0.1397
 1723PW      WM10105   9.565   6.837   5.647 -0.5664  0.2171  0.4374
 1724PW       W10106   2.376   2.973  11.799  0.3297 -0.1984 -0.2056
 1724PW      WP10107   2.282   2.996  11.697 -0.0092  0.5221  0.2266
 1724PW      WM10108   2.468   3.075  11.772  0.0183  0.2122  0.2047
 1725PW       W10109   7.389   8.819   9.450  0.2791  0.3393  0.3481
 1725PW      WP10110   7.285   8.791   9.360  0.2767  0.3813  0.3379
 1725PW      WM10111   7.384   8.839   9.588  0.2461 -0.0673  0.4132
 1726PW       W10112  11.619  11.373   3.949 -0.0825  0.0031 -0.1898
 1726PW      WP10113  11.523  11.325   4.039  0.1439 -0.2639 -0.0815
 1726PW      WM10114  11.645  11.359   3.813 -0.1332  0.1451 -0.2148
 1727PW       W10115   9.982   7.659  11.610 -0.0791 -0.2714 -0.2606
 1727PW      WP10116  10.023   7.547  11.684 -0.2827  0.2442  0.7221
 1727PW      WM10117  10.051   7.754  11.534  0.2659 -0.1203  0.2146
 1728PW       W10118  11.331   7.814   0.431 -0.3383 -0.0461  0.4416
 1728PW      WP10119  11.191   7.812   0.421 -0.3163  0.4548 -0.5016
 1728PW      WM10120  11.332   7.675   0.451 -0.0429 -0.1424 -0.1316
 1729PW       W10121   2.834   9.151  10.354  0.7482 -0.2527 -0.1115
 1729PW      WP10122   2.933   9.246  10.382  0.4841 -0.0332  0.1091
 1729PW      WM10123   2.774   9.068  10.258 -0.3162  0.5529 -0.2343
 1730PW       W10124   7.690   1.887   3.744  0.2925 -0.4612  0.2137
 1730PW      WP10125   7.550   1.886   3.756  0.2630  0.4850  0.2990
 1730PW      WM10126   7.794   1.970   3.787 -0.0244 -0.0199  0.1645
 1731PW       W10127   2.505  10.359   5.075 -0.2599  0.0852 -0.5601
 1731PW      WP10128   2.409  10.264   5.109 -0.0951  0.1317  0.1024
 1731PW      WM10129   2.411  10.456   5.038 -0.7480 -0.3242 -0.4518
 1732PW       W10130   2.761   5.813   4.343  0.0965  0.1521 -0.2537
 1732PW      WP10131   2.712   5.838   4.471  0.2002  0.0839 -0.1998
 1732PW      WM10132   2.688   5.878   4.242  0.4605  0.4087 -0.3656
 1733PW       W10133   8.293   8.872  11.025 -0.0855 -0.0006  0.2130
 1733PW      WP10134   8.416   8.920  11.072 -0.0862 -0.1431  0.3678
 1733PW      WM10135   8.239   8.965  11.115 -0.3384  0.0203  0.0446
 1734PW       W10136   6.510   2.789   0.602 -0.0244 -0.3019 -0.1609
 1734PW      WP10137   6.609   2.823   0.508 -0.2654  0.1374 -0.2673
 1734PW      WM10138   6.458   2.752   0.477  0.0519  0.1235 -0.3255
 1735PW       W10139   4.253   3.618  13.239 -0.1328 -0.0626  0.1404
 1735PW      WP10140   4.141   3.679  13.182  0.0293  0.4478  0.3340
 1735PW      WM10141   4.310   3.545  13.344 -0.4400 -0.4374  0.0548
 1736PW       W10142   7.049   5.379   4.316  0.1293 -0.2942  0.0733
 1736PW      WP10143   7.067   5.513   4.350 -0.5102 -0.1131 -0.2261
 1736PW      WM10144   6.979   5.281   4.388  0.2937 -0.1138  0.4966
 1737PW       W10145  11.245   1.121   1.364  0.0812  0.1223 -0.3441
 1737PW      WP10146  11.129   1.094   1.436  0.0506 -0.2306 -0.5157
 1737PW      WM10147  11.306   1.245   1.386  0.1582  0.0176  0.0792
 1738PW       W10148  11.168   6.866   8.700  0.1414 -0.0884 -0.0233
 1738PW      WP10149  11.283   6.906   8.770  0.2998  0.0918 -0.3775
 1738PW      WM10150  11.044   6.877   8.764 -0.0849 -0.3144 -0.4079
 1739PW       W10151   9.260   5.280   0.622 -0.1688  0.1444 -0.2428
 1739PW      WP10152   9.329   5.161   0.650 -0.4220 -0.0212 -0.3031
 1739PW      WM10153   9.328   5.261   0.501  0.1823  0.0035 -0.0308
 1740PW       W10154   6.347   6.108   3.434  0.0133 -0.0319  0.4666
 1740PW      WP10155   6.211   6.126   3.406 -0.0665 -0.6597  0.3915
 1740PW      WM10156   6.270   6.218   3.475  0.1042 -0.0330  0.6492
 1741PW       W10157   9.024   3.866   2.283  0.2244 -0.1017 -0.1922
 1741PW      WP10158   9.130   3.828   2.201 -0.2287 -0.0722 -0.8337
 1741PW      WM10159   8.936   3.761   2.316 -0.1019  0.1763 -0.1482
 1742PW       W10160   3.993   0.079   8.513  0.2964 -0.1380 -0.1415
 1742PW      WP10161   4.126   0.084   8.470  0.1535 -0.2362 -0.6214
 1742PW      WM10162   4.027   0.037   8.643  0.0172 -0.5796 -0.2008
 1743PW       W10163   9.613   7.841   2.906  0.0111 -0.0355  0.3020
 1743PW      WP10164   9.494   7.872   2.973 -0.1046  0.1234  0.0318
 1743PW      WM10165   9.656   7.709   2.923  0.1395 -0.0058  0.2192
 1744PW       W10166  11.263   5.564   0.058 -0.3614 -0.2549 -0.2751
 1744PW      WP10167  11.320   5.577  -0.069 -0.0161  0.1221 -0.0975
 1744PW      WM10168  11.283   5.471   0.161 -0.1511  0.2157  0.1341
 1745PW       W10169   8.708   7.779   5.220 -0.1542 -0.0786  0.0046
 1745PW      WP10170   8.584   7.798   5.282 -0.4057 -0.0595 -0.4770
 1745PW      WM10171   8.791   7.708   5.133  0.2225  0.0715  0.2276
 1746PW       W10172   5.313   7.262  12.862 -0.1527 -0.1903  0.3269
 1746PW      WP10173   5.415   7.230  12.953  0.1939  0.0012  0.0216
 1746PW      WM10174   5.219   7.317  12.775  0.2386  0.2765  0.1746
 1747PW       W10175  10.049   3.721   3.211  0.5056 -0.2081  0.4587
 1747PW      WP10176  10.112   3.611   3.152 -0.1805 -0.4261  0.0784
 1747PW      WM10177  10.002   3.826   3.291  0.2888  0.1475 -0.0962
 1748PW       W10178   2.115   7.343  10.066 -0.1528 -0.0899  0.2029
 1748PW      WP10179   2.106   7.239  10.158  0.0657  0.2913  0.6773
 1748PW      WM10180   2.015   7.412   9.997  0.2571  0.2706 -0.0612
 1749PW       W10181   8.595   4.816   3.109 -0.0494  0.3536  0.2028
 1749PW      WP10182   8.730   4.803   3.143 -0.0853  0.0940  0.2569
 1749PW      WM10183   8.591   4.947   3.061 -0.3067  0.1173 -0.4770
 1750PW       W10184   1.701   9.870   9.688  0.4537  0.1066  0.0825
 1750PW      WP10185   1.810   9.792   9.729  0.4098  0.0939  0.1776
 1750PW      WM10186   1.618   9.982   9.685  0.1261 -0.1295  0.0715
 1751PW       W10187  11.112   6.889  10.109  0.0459  0.1634 -0.1998
 1751PW      WP10188  11.224   6.908  10.191 -0.4885  0.3734  0.5377
 1751PW      WM10189  11.009   6.828  10.181  0.1589 -0.0998 -0.2546
 1752PW       W10190   8.649   6.657  11.568 -0.1878 -0.0574 -0.2824
 1752PW      WP10191   8.582   6.780  11.582 -0.1740 -0.0599 -0.1860
 1752PW      WM10192   8.707   6.595  11.457 -0.2785  0.2604 -0.5166
 1753PW       W10193   1.256   3.461   0.438  0.0280  0.1774  0.2557
 1753PW      WP10194   1.323   3.568   0.377 -0.0477  0.1048  0.0421
 1753PW      WM10195   1.275   3.593   0.482  0.0701  0.1448  0.3358
 1754PW       W10196   2.165   4.177   4.526  0.1629  0.1644  0.1934
 1754PW      WP10197   2.064   4.132   4.612  0.2100 -0.0016  0.1631
 1754PW      WM10198   2.208   4.243   4.410 -0.0877  0.2793  0.1631
 1755PW       W10199   0.609  11.866   3.217 -0.0615  0.1147 -0.2594
 1755PW      WP10200   0.495  11.947   3.223 -0.3372 -0.2854  0.3296
 1755PW      WM10201   0.564  11.740   3.179 -0.2048  0.0463  0.1105
 1756PW       W10202   1.538   7.725   1.254  0.0873  0.4217  0.2374
 1756PW      WP10203   1.450   7.820   1.200  0.1140  0.2485 -0.1219
 1756PW      WM10204   1.509   7.755   1.388  0.1770  0.5025  0.2393
 1757PW       W10205   5.433   6.357   9.851  0.1343 -0.2606 -0.2251
 1757PW      WP10206   5.553   6.403   9.796  0.1244  0.0053 -0.0338
 1757PW      WM10207   5.303   6.320   9.813 -0.2060  0.2253  0.3781
 1758PW       W10208  11.806  11.835   1.053  0.0247 -0.0054  0.3371
 1758PW      WP10209  11.822  11.966   1.007  0.2495 -0.2259 -0.2583
 1758PW      WM10210  11.797  11.702   1.009 -0.0692 -0.0080  0.3644
 1759PW       W10211  11.985   2.033   2.308  0.0726 -0.0572  0.0072
 1759PW      WP10212  11.973   2.017   2.446  0.2826 -0.3214 -0.0016
 1759PW      WM10213  11.902   1.922   2.289 -0.1168  0.0693  0.0826
 1760PW       W10214   1.334   1.566   2.780  0.0958 -0.3574 -0.4600
 1760PW      WP10215   1.403   1.444   2.776  0.5570 -0.1358  0.0398
 1760PW      WM10216   1.285   1.675   2.852  0.1175 -0.3263 -0.4922
 1761PW       W10217  11.881  10.407   0.217  0.2159 -0.1862  0.0839
 1761PW      WP10218  11.869  10.442   0.081 -0.7042 -0.1009  0.1550
 1761PW      WM10219  12.004  10.452   0.168  0.4200 -0.8927 -0.1102
 1762PW       W10220  11.073   3.223   5.543  0.1336  0.0203  0.1696
 1762PW      WP10221  11.109   3.088   5.551  0.6584  0.1500  0.1876
 1762PW      WM10222  11.106   3.227   5.407  0.2942  0.7850  0.2098
 1763PW       W10223   8.836   8.168   8.075  0.4096 -0.0890  0.2929
 1763PW      WP10224   8.829   8.111   8.203 -0.1301 -0.3468  0.1635
 1763PW      WM10225   8.919   8.263   8.014  0.5310 -0.3801 -0.0135
 1764PW       W10226   4.689  10.479   4.229 -0.0108 -0.2023  0.3268
 1764PW      WP10227   4.748  10.606   4.217 -0.2638 -0.1003  0.0787
 1764PW      WM10228   4.587  10.482   4.132  0.0291 -0.1392  0.2866
 1765PW       W10229  11.622   6.331   1.123  0.6391  0.2584  0.4002
 1765PW      WP10230  11.715   6.240   1.176  0.5111 -0.0817  0.0641
 1765PW      WM10231  11.578   6.441   1.198 -0.1051  0.4144 -0.1987
 1766PW       W10232   9.143   6.129   3.330 -0.3962 -0.1710 -0.2749
 1766PW      WP10233   9.145   6.100   3.467 -0.1885 -0.3658 -0.3151
 1766PW      WM10234   9.083   6.255   3.321 -0.0292 -0.0006 -0.4614
 1767PW       W10235   2.921   3.234   3.589  0.1223  0.0308  0.3473
 1767PW      WP10236   2.978   3.189   3.469 -0.5014  0.1227 -0.0066
 1767PW      WM10237   2.980   3.359   3.608  0.3732  0.1427 -0.8141
 1768PW       W10238   2.057   1.476   3.112 -0.1253 -0.2962 -0.2044
 1768PW      WP10239   1.948   1.562   3.127  0.3180  0.2518  0.0436
 1768PW      WM10240   1.950   1.549   3.061 -0.2905 -0.2922  0.1360
 1769PW       W10241   6.691   8.907  11.082 -0.0826  0.3587 -0.1197
 1769PW      WP10242   6.651   8.841  11.198 -0.0890  0.7572  0.1129
 1769PW      WM10243   6.579   8.898  10.998 -0.4891 -0.2596  0.4423
 1770PW       W10244   9.370  11.648   3.460 -0.4499 -0.1159 -0.2962
 1770PW      WP10245   9.392  11.608   3.592 -0.4152  0.3007 -0.1678
 1770PW      WM10246   9.483  11.672   3.381 -0.2965 -0.2691 -0.1254
 1771PW       W10247   7.288   2.195  13.183  0.0267  0.5393  0.1868
 1771PW      WP10248   7.368   2.238  13.289  0.3377  0.0518  0.1673
 1771PW      WM10249   7.177   2.224  13.103 -0.0468 -0.1158  0.0171
 1772PW       W10250  10.049   2.926   3.860  0.4255 -0.1929  0.4926
 1772PW      WP10251  10.138   3.034   3.847  0.3310 -0.1442  0.2181
 1772PW      WM10252  10.042   2.849   3.743 -0.0890  0.1281  0.2942
 1773PW       W10253   2.679  10.668  12.412  0.1166  0.2768 -0.1385
 1773PW      WP10254   2.685  10.629  12.278 -0.0487 -0.0470 -0.0597
 1773PW      WM10255   2.547  10.626  12.387  0.1865 -0.2131  0.2250
 1774PW       W10256  11.528   8.086  10.102 -0.1268 -0.1351  0.2764
 1774PW      WP10257  11.475   8.188  10.182  0.5532  0.2318  0.2968
 1774PW      WM10258  11.509   8.205  10.173  0.7071  0.0696  0.2023
 1775PW       W10259   9.144   9.798  13.363 -0.4017 -0.1875  0.0211
 1775PW      WP10260   9.131   9.887  13.256  0.0150 -0.0367  0.0870
 1775PW      WM10261   9.252   9.761  13.283  0.0398 -0.2020  0.5919
 1776PW       W10262   0.809   9.511  13.322 -0.2121 -0.2349 -0.3495
 1776PW      WP10263   0.917   9.457  13.251  0.2438  0.6157 -0.3643
 1776PW      WM10264   0.868   9.452  13.434 -0.4121  0.3092  0.0693
 1777PW       W10265   4.136  10.609   9.375 -0.0771  0.2075 -0.0080
 1777PW      WP10266   4.092  10.742   9.366 -0.3574  0.0937 -0.5870
 1777PW      WM10267   4.105  10.605   9.238 -0.1770 -0.0923  0.0205
 1778PW       W10268   0.158   7.567   4.207  0.4689 -0.3343  0.0452
 1778PW      WP10269   0.198   7.698   4.238  0.0122 -0.3092  0.6092
 1778PW      WM10270   0.211   7.455   4.271 -0.0176 -0.6325 -0.0526
 1779PW       W10271   5.026   7.205   0.570  0.1963 -0.1225  0.0246
 1779PW      WP10272   5.000   7.251   0.700 -0.2019  0.0333 -0.1035
 1779PW      WM10273   4.964   7.098   0.506  0.0252  0.3070 -0.5713
 1780PW       W10274   1.343  10.969   3.007  0.4941  0.1860  0.1350
 1780PW      WP10275   1.231  10.893   3.040  0.4106  0.2736  0.0552
 1780PW      WM10276   1.372  11.016   2.878 -0.3393 -0.4641 -0.3404
 1781PW       W10277   9.705   8.605   1.192 -0.0651 -0.3768  0.0502
 1781PW      WP10278   9.603   8.511   1.211 -0.1870 -0.3772 -0.5074
 1781PW      WM10279   9.622   8.558   1.294  0.0807 -0.7615 -0.0003
 1782PW       W10280   6.571   8.873  12.072  0.1138  0.0103 -0.3011
 1782PW      WP10281   6.662   8.860  12.177 -0.2419  0.1374  0.0334
 1782PW      WM10282   6.562   8.742  12.024  0.3163 -0.2635  0.3568
 1783PW       W10283   3.996   7.542   1.526  0.0534  0.2284 -0.5198
 1783PW      WP10284   3.974   7.446   1.626 -0.5972  0.2077 -0.6582
 1783PW      WM10285   4.061   7.428   1.478  0.0699 -0.0584  0.1296
 1784PW       W10286   7.962  12.136   4.884  0.0403 -0.0139 -0.4149
 1784PW      WP10287   8.048  12.078   4.978  0.2552  0.4412 -0.3154
 1784PW      WM10288   7.866  12.064   4.812 -0.2230  0.0145 -0.1048
 1785PW       W10289   7.618   3.008   2.123 -0.6394  0.0623 -0.2187
 1785PW      WP10290   7.697   3.009   2.007 -0.1788  0.3282  0.0814
 1785PW      WM10291   7.671   3.129   2.169  0.2867 -0.5293  0.4458
 1786PW       W10292   6.371   1.926   0.148  0.3134 -0.2700 -0.2903
 1786PW      WP10293   6.355   1.791   0.182 -0.2488 -0.0263  0.5521
 1786PW      WM10294   6.378   2.027   0.051 -0.4166  0.1877  0.0940
 1787PW       W10295   5.340   2.905   4.330 -0.2900 -0.1722  0.2009
 1787PW      WP10296   5.358   2.940   4.195  0.4983 -0.2051  0.2748
 1787PW      WM10297   5.221   2.979   4.337 -0.1642  0.0286  0.2552
 1788PW       W10298   7.393  10.675   4.399  0.3991 -0.2934 -0.2886
 1788PW      WP10299   7.361  10.613   4.520  0.4645 -0.0137 -0.1246
 1788PW      WM10300   7.504  10.633   4.472  0.2719 -0.2433 -0.0608
 1789PW       W10301  10.283   0.950   0.096  0.2096 -0.1420  0.2783
 1789PW      WP10302  10.355   0.843   0.043  0.0997  0.0572 -0.3146
 1789PW      WM10303  10.307   0.913   0.228  0.1615 -0.1563  0.2831
 1790PW       W10304   1.468   3.182  12.583  0.1557  0.2352 -0.2049
 1790PW      WP10305   1.590   3.121  12.555  0.1074  0.0154  0.0444
 1790PW      WM10306   1.429   3.257  12.695  0.5068  0.2710 -0.1022
 1791PW       W10307   5.726   2.547   8.224 -0.0032 -0.1060 -0.2970
 1791PW      WP10308   5.783   2.634   8.130 -0.2071  0.1096 -0.2256
 1791PW      WM10309   5.629   2.546   8.325  0.0759 -0.2054 -0.2210
 1792PW       W10310   7.626   7.001   3.452  0.0106  0.3913  0.4782
 1792PW      WP10311   7.487   7.003   3.470 -0.0075 -0.0713  0.4667
 1792PW      WM10312   7.740   6.979   3.531  0.1341  0.2973  0.2782
 1793PW       W10313  11.335   6.419  10.435  0.2552 -0.0354 -0.4916
 1793PW      WP10314  11.406   6.372  10.546 -0.1960  0.0319 -0.1603
 1793PW      WM10315  11.328   6.281  10.454 -0.3769 -0.0091 -0.4155
 1794PW       W10316   0.641   8.970   1.387  0.7213 -0.1739  0.1247
 1794PW      WP10317   0.756   9.041   1.423  0.4220  0.0899  0.6136
 1794PW      WM10318   0.575   8.876   1.468 -0.0360  0.2911  0.0963
 1795PW       W10319   8.887  12.135   1.822 -0.1464  0.3384 -0.0705
 1795PW      WP10320   8.875  12.008   1.764 -0.3527  0.1061  0.4473
 1795PW      WM10321   8.959  12.180   1.934 -0.3298 -0.0108  0.1987
 1796PW       W10322   4.693   9.553   1.542 -0.2441  0.3617 -0.2633
 1796PW      WP10323   4.674   9.669   1.618 -0.1296  0.3405 -0.2016
 1796PW      WM10324   4.709   9.433   1.472  0.5110  0.6839 -0.7083
 1797PW       W10325   0.118  11.221   8.559 -0.1894  0.4680  0.4744
 1797PW      WP10326   0.223  11.293   8.617  0.0106  0.3016  0.3271
 1797PW      WM10327   0.165  11.101   8.613 -0.1706  0.3578  0.2230
 1798PW       W10328   7.232   4.883   4.401 -0.1276 -0.5084 -0.0490
 1798PW      WP10329   7.095   4.915   4.403  0.0926  0.6518  0.1080
 1798PW      WM10330   7.311   4.861   4.288  0.2425  0.6139 -0.0725
 1799PW       W10331   5.190   7.345   9.217  0.2162  0.0206  0.3817
 1799PW      WP10332   5.188   7.307   9.352  0.1703  0.0143  0.3793
 1799PW      WM10333   5.176   7.212   9.174 -0.4377  0.1927  0.0025
 1800PW       W10334   4.611  11.874   4.566  0.0502 -0.3017 -0.0148
 1800PW      WP10335   4.499  11.930   4.504  0.2047 -0.0340 -0.0603
 1800PW      WM10336   4.704  11.972   4.530  0.0151 -0.0957  0.4261
 1801PW       W10337   9.436   9.725   2.090 -0.2137  0.1044  0.0799
 1801PW      WP10338   9.485   9.844   2.034  0.2916 -0.0580  0.1458
 1801PW      WM10339   9.330   9.788   2.156 -0.1707  0.2340  0.0287
 1802PW       W10340   2.522   3.932   8.943  0.0246 -0.0749  0.4701
 1802PW      WP10341   2.644   3.891   8.888 -0.2087 -0.0091 -0.1335
 1802PW      WM10342   2.386   3.929   8.974 -0.0086  0.4163  0.4112
 1803PW       W10343  11.178   0.380   5.257  0.0183 -0.5446 -0.0535
 1803PW      WP10344  11.169   0.482   5.161 -0.2214 -0.5864 -0.0793
 1803PW      WM10345  11.297   0.439   5.212 -0.2999 -0.1217 -0.3944
 1804PW       W10346   3.163   2.338   3.518  0.4352  0.1455  0.2953
 1804PW      WP10347   3.093   2.344   3.638  0.4735  0.2483  0.3128
 1804PW      WM10348   3.144   2.471   3.481 -0.1646 -0.1120 -0.4510
 1805PW       W10349   8.482   3.134   1.728  0.1463 -0.2033  0.0391
 1805PW      WP10350   8.362   3.163   1.661  0.1944 -0.4521 -0.1632
 1805PW      WM10351   8.362   3.077   1.683 -0.3266  0.1651  0.7360
 1806PW       W10352   6.915   8.901   2.742 -0.0965  0.1469 -0.0952
 1806PW      WP10353   6.879   9.035   2.721  0.2296  0.3539  0.5333
 1806PW      WM10354   7.047   8.948   2.744 -0.0043 -0.0955 -0.2657
 1807PW       W10355   2.514   3.178   1.953 -0.4912  0.1597  0.3965
 1807PW      WP10356   2.498   3.199   1.816 -0.1884 -0.3765  0.2619
 1807PW      WM10357   2.449   3.054   1.938 -0.1157 -0.0013 -0.0123
 1808PW       W10358  11.080  10.094   9.038 -0.5272 -0.1238  0.0141
 1808PW      WP10359  11.067   9.968   8.978 -0.0504 -0.2656  0.1890
 1808PW      WM10360  11.116  10.039   9.162 -0.3326  0.2339  0.1206
 1809PW       W10361   7.733   8.314   2.538 -0.1130 -0.0595 -0.0434
 1809PW      WP10362   7.680   8.403   2.444  0.1890  0.1991  0.0232
 1809PW      WM10363   7.747   8.358   2.670 -0.0179  0.1309 -0.1135
 1810PW       W10364   7.230   0.742   5.584 -0.5285 -0.1662  0.1447
 1810PW      WP10365   7.272   0.611   5.560 -0.1707  0.0415 -0.4962
 1810PW      WM10366   7.290   0.697   5.466  0.0460  0.7604  0.0328
 1811PW       W10367   7.182   8.241   0.627  0.4612 -0.2218 -0.4032
 1811PW      WP10368   7.066   8.283   0.693  0.4515 -0.0781 -0.5086
 1811PW      WM10369   7.204   8.167   0.743  0.4094 -0.0250 -0.2644
 1812PW       W10370   5.179   1.327  10.222  0.0009  0.3386  0.0556
 1812PW      WP10371   5.208   1.191  10.206  0.0177  0.3578 -0.0868
 1812PW      WM10372   5.193   1.330  10.083  0.0238  0.0174  0.0482
 1813PW       W10373   4.065  10.354  10.192  0.4691 -0.7279 -0.2336
 1813PW      WP10374   4.071  10.394  10.058 -0.1708  0.2804 -0.0199
 1813PW      WM10375   4.081  10.298  10.319 -0.3886  0.0032  0.2615
 1814PW       W10376  11.512   0.067   9.210  0.3581  0.3635  0.2922
 1814PW      WP10377  11.585   0.173   9.155  0.3259  0.2402  0.0041
 1814PW      WM10378  11.391   0.068   9.140  0.2030  0.1768  0.5455
 1815PW       W10379   4.318  12.038   2.349 -0.2615  0.2224 -0.0326
 1815PW      WP10380   4.326  12.085   2.481 -0.0886 -0.3396  0.1722
 1815PW      WM10381   4.196  11.989   2.398 -0.0474  0.5100  0.8955
 1816PW       W10382   0.446   7.904   0.271  0.0853  0.0715  0.0234
 1816PW      WP10383   0.381   7.981   0.174  0.1586  0.1825  0.0612
 1816PW      WM10384   0.314   7.878   0.234  0.0242  0.5221 -0.1109
 1817PW       W10385   5.267  11.038   2.792  0.3676 -0.1399  0.0230
 1817PW      WP10386   5.344  11.032   2.675  0.0797 -0.1734 -0.1700
 1817PW      WM10387   5.335  11.146   2.735  0.2668  0.0966  0.3406
 1818PW       W10388   9.289   8.268  10.914 -0.0643 -0.0337 -0.0977
 1818PW      WP10389   9.175   8.331  10.862 -0.1413 -0.3052 -0.2667
 1818PW      WM10390   9.384   8.196  10.988 -0.1365 -0.0387 -0.0081
 1819PW       W10391   2.613   3.093  10.067 -0.3093 -0.3642 -0.2148
 1819PW      WP10392   2.650   3.145  10.192 -0.2316  0.2134 -0.4607
 1819PW      WM10393   2.715   3.047   9.983  0.2933 -0.0377  0.2925
 1820PW       W10394   8.094   1.800   4.613 -0.1942  0.1113 -0.0127
 1820PW      WP10395   8.057   1.694   4.529 -0.0229  0.0473 -0.0091
 1820PW      WM10396   8.212   1.851   4.559 -0.1610  0.1121  0.0597
 1821PW       W10397   6.037   9.128   0.488  0.3357 -0.2733  0.3418
 1821PW      WP10398   6.131   9.024   0.497  0.3277 -0.3695 -0.3842
 1821PW      WM10399   6.175   9.125   0.462  0.2899 -0.2395  0.0819
 1822PW       W10400  11.299  11.049  11.986 -0.2422 -0.3532 -0.2476
 1822PW      WP10401  11.214  11.033  12.096  0.1760 -0.1842  0.1153
 1822PW      WM10402  11.403  10.982  11.920 -0.1191 -0.2888 -0.1205
 1823PW       W10403  11.216   5.692   3.759  0.5616 -0.4424 -0.0129
 1823PW      WP10404  11.328   5.746   3.825  0.3656 -0.2528  0.1740
 1823PW      WM10405  11.184   5.791   3.665  0.5011 -0.3251  0.1297
 1824PW       W10406  10.387   2.859  11.474  0.1021  0.0755 -0.0203
 1824PW      WP10407  10.323   2.831  11.595 -0.1117  0.3254 -0.0723
 1824PW      WM10408  10.408   2.998  11.473 -0.5206  0.1810  0.0547
 1825PW       W10409   8.956   6.809   4.687 -0.3755  0.0985  0.2158
 1825PW      WP10410   8.822   6.828   4.652 -0.2710  0.1584 -0.1762
 1825PW      WM10411   8.966   6.743   4.810  0.0384 -0.3128 -0.0191
 1826PW       W10412   1.575   4.496   4.072  0.4029  0.1543 -0.1863
 1826PW      WP10413   1.674   4.473   4.168 -0.1367  0.2886  0.4381
 1826PW      WM10414   1.601   4.382   3.995  0.2058 -0.0927  0.1015
 1827PW       W10415  11.656   8.619   0.941  0.1867  0.0703  0.1590
 1827PW      WP10416  11.602   8.593   0.814 -0.1319  0.5790  0.1756
 1827PW      WM10417  11.759   8.653   0.853  0.5410 -0.7798  0.1953
 1828PW       W10418   1.403   2.879  12.941  0.0361 -0.2145  0.4603
 1828PW      WP10419   1.352   2.970  12.848  0.3072 -0.1414  0.3759
 1828PW      WM10420   1.303   2.899  13.036 -0.3917  0.2020 -0.0486
 1829PW       W10421   3.938   2.518  12.618 -0.2004  0.3100  0.0239
 1829PW      WP10422   3.995   2.562  12.498 -0.1522  0.2197  0.0138
 1829PW      WM10423   3.833   2.433  12.655  0.1250 -0.1513 -0.0700
 1830PW       W10424   1.453  11.135  10.808 -0.2063  0.2693  0.1644
 1830PW      WP10425   1.482  11.017  10.740  1.0463  0.6162 -0.0416
 1830PW      WM10426   1.563  11.108  10.890 -0.3470  0.1430  0.3154
 1831PW       W10427   3.014  12.052   4.938 -0.0346 -0.0436 -0.2705
 1831PW      WP10428   3.139  12.006   4.980 -0.1890 -0.0239  0.2479
 1831PW      WM10429   2.946  11.950   5.006  0.0760 -0.0700 -0.1987
 1832PW       W10430   8.307  11.523  10.703  0.0046  0.1001  0.2940
 1832PW      WP10431   8.242  11.451  10.804 -0.2776  0.0945  0.1147
 1832PW      WM10432   8.435  11.536  10.758  0.2151 -0.2219 -0.0882
 1833PW       W10433   2.596   2.076   5.212 -0.0744  0.1046 -0.1202
 1833PW      WP10434   2.700   2.113   5.298  0.2319 -0.2270 -0.3310
 1833PW      WM10435   2.624   1.977   5.117  0.0330 -0.2078  0.2269
 1834PW       W10436  10.575   0.886  11.133 -0.0991 -0.2328 -0.2553
 1834PW      WP10437  10.644   0.926  11.248 -0.0545 -0.3815 -0.2284
 1834PW      WM10438  10.503   0.777  11.082 -0.4527 -0.4228  0.5653
 1835PW       W10439   3.404   3.837  13.027 -0.0403 -0.5092 -0.1071
 1835PW      WP10440   3.497   3.815  13.130 -0.2799  0.2132  0.2973
 1835PW      WM10441   3.445   3.742  13.122  0.2221  0.0030  0.3158
 1836PW       W10442  10.915   4.372   3.619 -0.1323 -0.0545 -0.0834
 1836PW      WP10443  11.048   4.386   3.579 -0.1426  0.3274 -0.0007
 1836PW      WM10444  10.918   4.509   3.647  0.2836 -0.0333 -0.1994
 1837PW       W10445   2.163   2.662   8.570  0.0531 -0.2161 -0.0493
 1837PW      WP10446   2.089   2.779   8.585  0.4401 -0.0260  0.6128
 1837PW      WM10447   2.127   2.529   8.544  0.7336 -0.4259 -0.0406
 1838PW       W10448  10.989  10.727   3.406 -0.1534  0.3113 -0.2355
 1838PW      WP10449  10.895  10.677   3.498  0.2276  0.0792  0.0437
 1838PW      WM10450  10.854  10.756   3.431 -0.1053  0.2109  0.1943
 1839PW       W10451   2.396   3.033   4.269  0.4292 -0.5359  0.3108
 1839PW      WP10452   2.506   3.086   4.336  0.2423  0.1707  0.1029
 1839PW      WM10453   2.340   2.940   4.180  0.9058 -0.4174 -0.1338
 1840PW       W10454   4.577   7.339   4.715 -0.1299 -0.1462  0.0624
 1840PW      WP10455   4.655   7.425   4.637  0.2815 -0.4767  0.0873
 1840PW      WM10456   4.703   7.284   4.742 -0.2858 -0.4158  0.2622
 1841PW       W10457   4.264  10.602  11.562 -0.2402 -0.1929  0.1932
 1841PW      WP10458   4.148  10.679  11.546 -0.3000 -0.3031  0.0814
 1841PW      WM10459   4.320  10.520  11.464 -0.6779 -0.1711 -0.0882
 1842PW       W10460   2.105   7.126  10.968  0.0568 -0.2641  0.2950
 1842PW      WP10461   2.061   7.235  10.892  0.3896  0.0153  0.4864
 1842PW      WM10462   1.998   7.046  10.927 -0.0675  0.0892 -0.1018
 1843PW       W10463   5.152   8.523   1.221  0.3996 -0.1501 -0.0245
 1843PW      WP10464   5.269   8.456   1.181  0.4421  0.0271 -0.2025
 1843PW      WM10465   5.238   8.462   1.313  0.4572 -0.2845 -0.1639
 1844PW       W10466   6.093   0.916   1.444  0.4998 -0.0111  0.0214
 1844PW      WP10467   6.031   0.969   1.330 -0.1531 -0.5156  0.1107
 1844PW      WM10468   6.010   0.869   1.546  0.0394  0.0119 -0.3230
 1845PW       W10469   3.923   4.673   8.856  0.0611  0.3677 -0.2018
 1845PW      WP10470   3.791   4.705   8.825  0.0200  0.2287 -0.1726
 1845PW      WM10471   4.001   4.556   8.855 -0.1737  0.2069 -0.3920
 1846PW       W10472   8.142   1.651  10.584 -0.2115 -0.1899 -0.0651
 1846PW      WP10473   8.010   1.667  10.627 -0.2217  0.4720 -0.2751
 1846PW      WM10474   8.238   1.741  10.632 -0.1537 -0.1324 -0.2803
 1847PW       W10475   6.955   8.248   9.107  0.1308  0.2269 -0.2200
 1847PW      WP10476   7.077   8.274   9.044  0.1646 -0.1063 -0.2998
 1847PW      WM10477   7.028   8.174   9.201 -0.3438  0.2551  0.1940
 1848PW       W10478   3.594   5.224   2.764  0.1621 -0.0166 -0.4179
 1848PW      WP10479   3.726   5.205   2.719  0.3555 -0.2811  0.2053
 1848PW      WM10480   3.497   5.300   2.699  0.0210  0.2277  0.0579
 1849PW       W10481   6.251  10.204   2.072 -0.0997 -0.2807 -0.1684
 1849PW      WP10482   6.349  10.303   2.062 -0.0193 -0.3167  0.1992
 1849PW      WM10483   6.170  10.314   2.042 -0.0721 -0.2793 -0.2414
 1850PW       W10484   0.628   2.971   1.703 -0.1251 -0.3163  0.1254
 1850PW      WP10485   0.755   2.964   1.645 -0.2201 -0.2923 -0.0912
 1850PW      WM10486   0.746   3.010   1.638 -0.2115 -0.1905  0.0421
 1851PW       W10487   3.316   5.010   9.069  0.4202  0.0736  0.1892
 1851PW      WP10488   3.411   5.008   8.967 -0.3193 -0.1517 -0.5479
 1851PW      WM10489   3.274   5.031   9.202 -0.2307 -0.4445  0.0947
 1852PW       W10490   2.703   2.966  12.501 -0.0414  0.3127  0.0507
 1852PW      WP10491   2.652   3.097  12.500  0.4876  0.5306 -0.0389
 1852PW      WM10492   2.727   3.006  12.369  0.0265  0.2642  0.0482
 1853PW       W10493   7.929  10.274   8.935 -0.3978 -0.3180  0.3467
 1853PW      WP10494   7.845  10.207   8.845  0.1337 -0.4895 -0.0479
 1853PW      WM10495   7.934  10.400   8.997 -0.3725 -0.0386 -0.1922
 1854PW       W10496   3.917   8.296   8.710  0.1716 -0.0382 -0.2248
 1854PW      WP10497   3.796   8.353   8.670  0.1412  0.0947  0.0431
 1854PW      WM10498   3.946   8.373   8.597 -0.2674  0.0497 -0.2868
 1855PW       W10499   1.979  10.456  13.332  0.1749  0.1779  0.2734
 1855PW      WP10500   2.015  10.560  13.418  0.2074  0.4932 -0.1093
 1855PW      WM10501   1.985  10.555  13.234  0.5382  0.5198  0.6216
 1856PW       W10502   9.488   5.072   9.992 -0.2477 -0.3302 -0.4275
 1856PW      WP10503   9.389   5.103   9.898 -0.4930  0.4126  0.0316
 1856PW      WM10504   9.579   5.075   9.885 -0.2522 -0.0208 -0.4278
 1857PW       W10505   7.879   4.559   4.242 -0.0512 -0.0396 -0.2563
 1857PW      WP10506   7.956   4.639   4.328 -0.3210  0.0915 -0.1297
 1857PW      WM10507   7.944   4.572   4.119 -0.4509 -0.7330 -0.5712
 1858PW       W10508   1.705   2.794   9.698 -0.3558  0.0178  0.1718
 1858PW      WP10509   1.671   2.801   9.562  0.0515  0.2764  0.0780
 1858PW      WM10510   1.751   2.925   9.710 -0.5583  0.0986  0.0924
 1859PW       W10511   2.673   6.890  10.557 -0.0656 -0.1367  0.0079
 1859PW      WP10512   2.779   6.872  10.469  0.0478 -0.1087  0.1375
 1859PW      WM10513   2.694   6.804  10.666  0.3365 -0.0445  0.0095
 1860PW       W10514   2.035   5.827   0.039  0.4269  0.2811 -0.2165
 1860PW      WP10515   2.099   5.909  -0.054  0.2872  0.2764 -0.3190
 1860PW      WM10516   2.039   5.780   0.171  0.1113  0.3233 -0.1873
 1861PW       W10517   7.202   6.299  11.200 -0.1548  0.0771 -0.2661
 1861PW      WP10518   7.323   6.355  11.243 -0.1678  0.1278 -0.2940
 1861PW      WM10519   7.198   6.256  11.333  0.6105  0.1661 -0.1906
 1862PW       W10520   9.292   1.507   9.113 -0.0727  0.0712 -0.2747
 1862PW      WP10521   9.210   1.612   9.069 -0.1525  0.0114 -0.2691
 1862PW      WM10522   9.423   1.554   9.097 -0.0683  0.1469 -0.0409
 1863PW       W10523   3.270  11.229  10.770  0.2401 -0.2293  0.3077
 1863PW      WP10524   3.270  11.360  10.820  0.3768 -0.2466  0.3547
 1863PW      WM10525   3.356  11.249  10.661  0.0151  0.5829  0.2480
 1864PW       W10526   4.488   8.922   0.230  0.1507 -0.0366  0.0439
 1864PW      WP10527   4.566   8.821   0.288  0.2819 -0.4248 -0.7363
 1864PW      WM10528   4.450   8.956   0.360 -0.1264  0.4177 -0.1430
 1865PW       W10529   7.633  10.112  12.353  0.1326 -0.3174  0.0031
 1865PW      WP10530   7.658  10.009  12.445  0.3757  0.0725  0.3918
 1865PW      WM10531   7.688  10.065  12.233  0.1453 -0.3093  0.0059
 1866PW       W10532   7.162   5.870   8.714  0.1591 -0.2799  0.4170
 1866PW      WP10533   7.026   5.848   8.688  0.2831 -0.6379  0.0206
 1866PW      WM10534   7.247   5.773   8.769  0.4649 -0.6544 -0.6016
 1867PW       W10535   3.192   8.347   5.133  0.0973 -0.3063  0.0686
 1867PW      WP10536   3.243   8.332   5.262 -0.2718 -0.0625  0.2502
 1867PW      WM10537   3.228   8.312   5.002 -0.1782 -0.4352  0.0233
 1868PW       W10538   2.274   0.636  10.209  0.1103 -0.2979  0.0637
 1868PW      WP10539   2.191   0.535  10.158 -0.0176 -0.3638  0.3873
 1868PW      WM10540   2.355   0.557  10.291  0.1524 -0.3266 -0.0059
 1869PW       W10541   3.264   7.513   2.754  0.1001  0.1173  0.2979
 1869PW      WP10542   3.243   7.584   2.873  0.3919 -0.3956  0.6781
 1869PW      WM10543   3.142   7.451   2.723  0.4132 -0.2433 -0.2948
 1870PW       W10544   3.401   7.917   1.822  0.1150  0.1390  0.4623
 1870PW      WP10545   3.390   7.798   1.895 -0.3254 -0.3466 -0.3234
 1870PW      WM10546   3.499   8.015   1.805  0.0353  0.1928  0.3009
 1871PW       W10547   1.732   5.341   9.136  0.0578 -0.2276 -0.2619
 1871PW      WP10548   1.827   5.273   9.059 -0.3764 -0.8072 -0.3152
 1871PW      WM10549   1.735   5.228   9.219  0.3051  0.4278  0.7226
 1872PW       W10550   2.273   2.199   9.304 -0.0731 -0.3625  0.1385
 1872PW      WP10551   2.178   2.223   9.203 -0.3792  0.0917  0.5175
 1872PW      WM10552   2.370   2.118   9.243  0.0495 -0.1348  0.0271
 1873PW       W10553  10.881   6.827  11.457  0.1078  0.5346 -0.1279
 1873PW      WP10554  10.830   6.954  11.425 -0.1503  0.4103 -0.2249
 1873PW      WM10555  10.854   6.813  11.320  0.2763 -0.4834 -0.0941
 1874PW       W10556   4.106   1.642   4.484  0.4718  0.6963 -0.2747
 1874PW      WP10557   4.104   1.689   4.616 -0.0023 -0.5063  0.2291
 1874PW      WM10558   4.225   1.606   4.548  0.0851 -0.2466  0.0031
 1875PW       W10559   4.002   4.498   3.406  0.3413  0.0004 -0.1691
 1875PW      WP10560   3.961   4.566   3.291 -0.2647 -0.2666 -0.1321
 1875PW      WM10561   4.095   4.445   3.496  0.1466 -0.2942 -0.1315
 1876PW       W10562   4.545  11.666   3.580 -0.2465  0.0520  0.2051
 1876PW      WP10563   4.579  11.535   3.616  0.7306  0.0236 -0.6097
 1876PW      WM10564   4.503  11.706   3.708 -0.0141  0.0233  0.2944
 1877PW       W10565   2.698   1.673   2.768  0.0606 -0.1610  0.0368
 1877PW      WP10566   2.646   1.544   2.755  0.0600 -0.1614  0.0414
 1877PW      WM10567   2.701   1.719   2.901  0.0806 -0.0928  0.0128
 1878PW       W10568   1.734   8.917   2.268 -0.0674  0.4157  0.3286
 1878PW      WP10569   1.831   8.854   2.346  0.2227 -0.3411 -0.5555
 1878PW      WM10570   1.839   8.957   2.184 -0.1768  0.0400 -0.0041
 1879PW       W10571  10.773   2.648   2.902  0.1087 -0.4196 -0.2702
 1879PW      WP10572  10.656   2.610   2.834 -0.2245 -0.2762  0.1925
 1879PW      WM10573  10.851   2.677   3.015 -0.1662  0.5000 -0.2747
 1880PW       W10574  11.449   1.845  10.239 -0.1231  0.4613 -0.6355
 1880PW      WP10575  11.581   1.796  10.236 -0.0944  0.2324  0.7819
 1880PW      WM10576  11.364   1.746  10.189  0.2969 -0.2362 -0.0656
 1881PW       W10577   7.480   2.847   0.894 -0.4395  0.7572 -0.1484
 1881PW      WP10578   7.401   2.784   0.992 -0.1969  0.1269 -0.3347
 1881PW      WM10579   7.388   2.745   0.864  0.1142  0.1599  0.0682
 1882PW       W10580   9.998   0.142   0.585 -0.0294  0.0806  0.0059
 1882PW      WP10581  10.060   0.017   0.579 -0.4437 -0.1137 -0.7232
 1882PW      WM10582  10.078   0.212   0.677  0.1330 -0.3243  0.1836
 1883PW       W10583   9.411   1.049   1.993  0.0182 -0.1365 -0.2254
 1883PW      WP10584   9.303   1.098   1.919  0.2250  0.6872 -0.0346
 1883PW      WM10585   9.469   1.053   1.866  0.1277  0.0624 -0.1718
 1884PW       W10586   7.954   4.612  13.155 -0.1851 -0.0044 -0.5956
 1884PW      WP10587   7.965   4.480  13.109 -0.2580 -0.5120  0.6397
 1884PW      WM10588   7.838   4.564  13.215 -0.0479  0.0555 -0.2721
 1885PW       W10589   6.036   2.095   8.281 -0.0855 -0.3042 -0.1121
 1885PW      WP10590   6.108   2.215   8.279 -0.2379 -0.2091 -0.0625
 1885PW      WM10591   6.058   2.204   8.366 -0.5696 -0.1344 -0.1866
 1886PW       W10592   2.235   1.339  11.070  0.2649  0.1623 -0.3717
 1886PW      WP10593   2.221   1.414  11.188  0.0732  0.2275 -0.4353
 1886PW      WM10594   2.173   1.214  11.085  0.3165  0.1262 -0.4556
 1887PW       W10595   4.872   4.087   2.035  0.4750  0.2075 -0.1694
 1887PW      WP10596   4.813   4.205   1.988 -0.2087  0.1345  0.4166
 1887PW      WM10597   4.992   4.072   1.964  0.3797  0.4866 -0.3944
 1888PW       W10598   9.796  10.644   2.232 -0.2449  0.3011  0.0106
 1888PW      WP10599   9.747  10.744   2.316 -0.4331 -0.2302  0.5684
 1888PW      WM10600   9.750  10.558   2.332  0.4352 -0.2922 -0.1514
 1889PW       W10601   7.881   3.387  11.073  0.2593  0.0531 -0.1330
 1889PW      WP10602   7.875   3.303  11.184 -0.3069 -0.3919 -0.4718
 1889PW      WM10603   7.908   3.522  11.043 -0.3833  0.3042  0.3159
 1890PW       W10604  11.758   0.159  11.596  0.1504  0.0090 -0.0925
 1890PW      WP10605  11.662   0.161  11.698  0.0819 -0.1735 -0.1505
 1890PW      WM10606  11.826   0.096  11.491  0.3825  0.0948  0.0032
 1891PW       W10607   2.524   3.391  12.552 -0.1602 -0.0933 -0.3718
 1891PW      WP10608   2.386   3.411  12.546 -0.1874 -0.1494 -0.0400
 1891PW      WM10609   2.602   3.291  12.491 -0.2973 -0.5900  0.2156
 1892PW       W10610   8.805   1.488   1.829 -0.2036 -0.2101 -0.0811
 1892PW      WP10611   8.762   1.547   1.949 -0.1034  0.3437 -0.3016
 1892PW      WM10612   8.803   1.349   1.845  0.4961 -0.2175  0.1221
 1893PW       W10613   2.694   9.731   2.862  0.0238  0.0889 -0.0091
 1893PW      WP10614   2.770   9.626   2.809 -0.2423  0.0459 -0.3229
 1893PW      WM10615   2.826   9.767   2.831  0.0731  0.0253  0.1229
 1894PW       W10616   7.694   7.885   2.812  0.1995 -0.1669  0.2287
 1894PW      WP10617   7.659   7.781   2.725  0.7600 -0.1588 -0.0356
 1894PW      WM10618   7.560   7.923   2.817  0.2616  0.0796  0.0896
 1895PW       W10619   7.990   2.326  13.112 -0.0602  0.2547  0.0355
 1895PW      WP10620   7.933   2.231  13.026  0.3556 -0.2963  0.3378
 1895PW      WM10621   8.017   2.406  13.000 -0.5200  0.2785 -0.0664
 1896PW       W10622   7.664   9.835   3.732  0.1819  0.1235 -0.0684
 1896PW      WP10623   7.679   9.858   3.595  0.0243  0.6408 -0.0107
 1896PW      WM10624   7.650   9.930   3.835 -0.1025  0.1483 -0.1246
 1897PW       W10625   7.977  10.092   0.336  0.0514  0.1798 -0.4395
 1897PW      WP10626   7.948  10.214   0.274 -0.2813  0.0982 -0.4536
 1897PW      WM10627   7.850  10.035   0.349 -0.1729  0.6872 -0.2771
 1898PW       W10628   3.031   0.378   9.638 -0.0928 -0.1919  0.0932
 1898PW      WP10629   3.047   0.247   9.684 -0.1834 -0.0810  0.4617
 1898PW      WM10630   2.930   0.440   9.712 -0.0975  0.0749 -0.1302
 1899PW       W10631   4.028   5.851   0.606 -0.0665  0.0561  0.4004
 1899PW      WP10632   4.118   5.876   0.501 -0.2641 -0.1707  0.1695
 1899PW      WM10633   4.086   5.740   0.668  0.3751 -0.2963 -0.5461
 1900PW       W10634   6.279   7.941   9.882 -0.2085 -0.1602 -0.3143
 1900PW      WP10635   6.335   8.053   9.820  0.0603 -0.2087 -0.1648
 1900PW      WM10636   6.347   7.900   9.997  0.2171 -0.0630 -0.5216
 1901PW       W10637   1.168   6.339  12.763 -0.1077  0.0912 -0.4777
 1901PW      WP10638   1.084   6.415  12.845  0.0572  0.0135 -0.2283
 1901PW      WM10639   1.080   6.246  12.822 -0.4278  0.6942  0.0633
 1902PW       W10640   9.654   6.000   1.704 -0.5896  0.3027 -0.7257
 1902PW      WP10641   9.542   5.969   1.781 -0.0325 -0.2015 -0.0519
 1902PW      WM10642   9.781   6.055   1.727 -0.5345  0.0431 -0.3782
 1903PW       W10643  10.580   5.714  12.911 -0.5197 -0.2474  0.0900
 1903PW      WP10644  10.638   5.650  12.801  0.0421  0.0279  0.2045
 1903PW      WM10645  10.668   5.715  13.020 -0.0108  0.0737 -0.3004
 1904PW       W10646  11.116   5.685   1.956 -0.3620  0.0070 -0.1300
 1904PW      WP10647  11.067   5.573   2.024 -0.5635  0.1955  0.0466
 1904PW      WM10648  11.008   5.682   1.867 -0.4839  0.5491 -0.0207
 1905PW       W10649   9.058  10.258   3.157  0.1964 -0.1727 -0.2834
 1905PW      WP10650   9.098  10.127   3.188 -0.0598 -0.3097 -0.5109
 1905PW      WM10651   9.195  10.280   3.141  0.0455  0.9102 -0.4398
 1906PW       W10652   3.233  10.078  10.172  0.2295 -0.2824 -0.1644
 1906PW      WP10653   3.111  10.096  10.107  0.3101 -0.1528 -0.2811
 1906PW      WM10654   3.225  10.132  10.301 -0.2640  0.0922 -0.3384
 1907PW       W10655   9.531   5.940   3.636  0.2843  0.2110  0.0051
 1907PW      WP10656   9.486   5.878   3.520 -0.1591 -0.2119  0.3845
 1907PW      WM10657   9.510   5.939   3.775  0.1864 -0.5672  0.0036
 1908PW       W10658   3.673   9.497   1.658 -0.0253  0.2693  0.4170
 1908PW      WP10659   3.730   9.387   1.723 -0.1186  0.1021  0.2210
 1908PW      WM10660   3.548   9.557   1.640 -0.1487 -0.0766  0.0553
 1909PW       W10661  11.202  10.745   2.915  0.2058  0.5135 -0.3901
 1909PW      WP10662  11.245  10.859   2.983  0.2411 -0.0498  0.6185
 1909PW      WM10663  11.325  10.698   2.868 -0.0682 -0.5583 -0.1628
 1910PW       W10664   2.774   8.214   2.446  0.1104  0.5220  0.0784
 1910PW      WP10665   2.795   8.189   2.310 -0.2291  0.5992  0.0074
 1910PW      WM10666   2.696   8.306   2.375 -0.0776  0.0917 -0.2978
 1911PW       W10667   7.006  10.116  10.429  0.1036  0.4628 -0.1233
 1911PW      WP10668   6.954  10.166  10.549 -0.4384 -0.4048  0.0461
 1911PW      WM10669   7.093  10.169  10.524 -0.3867  0.4584  0.3494
 1912PW       W10670   2.336   1.578   1.579  0.2670  0.1426 -0.2286
 1912PW      WP10671   2.408   1.496   1.491  0.5419  0.3687 -0.2228
 1912PW      WM10672   2.273   1.703   1.582 -0.0547 -0.0184  0.2363
 1913PW       W10673  10.456   5.760   3.498  0.0649 -0.0595 -0.2279
 1913PW      WP10674  10.517   5.699   3.388 -0.0282 -0.8718  0.1299
 1913PW      WM10675  10.497   5.872   3.572 -0.3129 -0.0026 -0.0946
 1914PW       W10676   7.076  10.495   0.380 -0.0823  0.4835  0.2444
 1914PW      WP10677   7.007  10.461   0.498 -0.1305  0.2168  0.1428
 1914PW      WM10678   7.172  10.397   0.352 -0.0952  0.4738  0.2341
 1915PW       W10679  11.190   1.920   0.275 -0.3083 -0.0991 -0.1368
 1915PW      WP10680  11.067   1.973   0.317 -0.1265  0.0731  0.2034
 1915PW      WM10681  11.240   1.889   0.402  0.2696  0.2921 -0.2456
 1916PW       W10682   5.927   0.592   1.092  0.2969 -0.0079 -0.0322
 1916PW      WP10683   5.918   0.453   1.094  0.0438  0.0055  0.0643
 1916PW      WM10684   5.826   0.684   1.057  0.2700 -0.1665 -0.3894
 1917PW       W10685  12.017   0.588   9.888 -0.1046  0.0986  0.0541
 1917PW      WP10686  11.923   0.601   9.991 -0.2160 -0.0352 -0.0292
 1917PW      WM10687  11.943   0.540   9.780  0.2850 -0.1199 -0.1291
 1918PW       W10688   6.829   6.267  11.608 -0.5709  0.3367  0.2542
 1918PW      WP10689   6.752   6.310  11.498  0.1076  0.3168 -0.2630
 1918PW      WM10690   6.886   6.334  11.717 -0.0585  0.2008  0.0816
 1919PW       W10691   9.950   8.141   2.767 -0.1663 -0.1080 -0.2334
 1919PW      WP10692  10.062   8.075   2.717  0.0943  0.2678 -0.1662
 1919PW      WM10693   9.889   8.115   2.890  0.0533  0.0925 -0.0777
 1920PW       W10694   2.082   8.983   2.771 -0.2728 -0.4019 -0.1457
 1920PW      WP10695   2.197   8.904   2.789  0.2479  0.3828  0.3049
 1920PW      WM10696   2.140   9.005   2.645 -0.2690  0.0074 -0.0786
 1921PW       W10697  11.688   8.881  10.657  0.3053 -0.0647  0.4032
 1921PW      WP10698  11.816   8.830  10.681  0.2270 -0.4508  0.0482
 1921PW      WM10699  11.726   8.985  10.571 -0.0824  0.0682  0.3826
 1922PW       W10700   2.342   3.445   9.540 -0.3089 -0.1324 -0.1543
 1922PW      WP10701   2.203   3.443   9.555 -0.3226 -0.2889 -0.2932
 1922PW      WM10702   2.376   3.430   9.405  0.1391 -0.0164 -0.0615
 1923PW       W10703   6.908   6.666  11.332  0.2252  0.5654 -0.2599
 1923PW      WP10704   6.883   6.605  11.208  0.3486  0.3075 -0.1619
 1923PW      WM10705   7.034   6.651  11.391  0.0887  0.4018  0.0013
 1924PW       W10706   7.725   2.640  12.295 -0.0570 -0.1723 -0.2126
 1924PW      WP10707   7.772   2.637  12.427  0.0627  0.1419 -0.2434
 1924PW      WM10708   7.586   2.661  12.293 -0.1210 -0.5705 -0.2369
 1925PW       W10709   3.442   6.143   2.496  0.4773  0.1586 -0.2825
 1925PW      WP10710   3.486   6.011   2.482  0.2996  0.0918 -0.2241
 1925PW      WM10711   3.511   6.263   2.518  0.2155  0.2279  0.2433
 1926PW       W10712   8.397   7.073   1.799  0.2585  0.2530  0.4210
 1926PW      WP10713   8.318   6.993   1.883  0.3808  0.2560  0.5416
 1926PW      WM10714   8.364   7.207   1.773  0.0727  0.1206 -0.0762
 1927PW       W10715   2.420   1.957  11.651 -0.1046  0.5590  0.0320
 1927PW      WP10716   2.518   1.868  11.606 -0.2316  0.2482  0.3464
 1927PW      WM10717   2.346   1.883  11.559 -0.1489 -0.0450  0.5229
 1928PW       W10718   4.927   3.928  12.947 -0.3413 -0.1736  0.0150
 1928PW      WP10719   4.793   3.963  12.963 -0.3538 -0.1237 -0.1872
 1928PW      WM10720   4.970   3.909  13.079  0.3589 -0.4975 -0.2327
 1929PW       W10721  10.645   9.269   3.996  0.1042 -0.2161 -0.3946
 1929PW      WP10722  10.580   9.161   4.057 -0.0195  0.0800  0.0141
 1929PW      WM10723  10.707   9.349   3.899  0.7889 -0.0449  0.1436
 1930PW       W10724   1.974   4.664  12.681  0.0554 -0.0588  0.0368
 1930PW      WP10725   2.057   4.572  12.615 -0.3189 -0.3219 -0.0875
 1930PW      WM10726   1.863   4.629  12.759 -0.0137 -0.2076 -0.1233
 1931PW       W10727   3.575  11.637  10.555 -0.3150  0.4540  0.2435
 1931PW      WP10728   3.448  11.578  10.561 -0.2779  0.3896  0.4126
 1931PW      WM10729   3.678  11.550  10.519 -0.4661  0.3501  0.0578
 1932PW       W10730   0.323   6.906  10.429  0.2678  0.2894 -0.2110
 1932PW      WP10731   0.388   6.792  10.479 -0.2880  0.0958  0.1163
 1932PW      WM10732   0.244   6.925  10.543  0.5236 -0.0228  0.0275
 1933PW       W10733   2.969   0.002  10.375 -0.5014  0.0572 -0.1358
 1933PW      WP10734   2.964   0.138  10.342  0.2886  0.1502  0.0230
 1933PW      WM10735   2.963  -0.024  10.512  0.0520 -0.2002 -0.1475
 1934PW       W10736   1.033   4.845   3.997 -0.3305 -0.4002 -0.2496
 1934PW      WP10737   1.082   4.865   3.867 -0.6047 -0.0603 -0.3085
 1934PW      WM10738   0.986   4.941   4.088  0.2824 -0.1883 -0.1281
 1935PW       W10739   9.879   7.000  11.303 -0.3197  0.3388  0.2408
 1935PW      WP10740   9.884   6.967  11.167 -0.2043  0.2291  0.2712
 1935PW      WM10741   9.854   6.954  11.433 -0.3077  0.3340  0.2412
 1936PW       W10742   6.377  12.056  10.440  0.1708 -0.1095 -0.3859
 1936PW      WP10743   6.321  11.943  10.500  0.5491  0.0997  0.4331
 1936PW      WM10744   6.499  12.090  10.499  0.1993 -0.2238 -0.3791
 1937PW       W10745  11.868  11.786   3.260 -0.0102 -0.0082  0.2469
 1937PW      WP10746  11.960  11.797   3.366  0.1760 -0.2986  0.1215
 1937PW      WM10747  11.884  11.859   3.142 -0.3081 -0.5291 -0.1393
 1938PW       W10748  10.236   4.242  10.067 -0.3244 -0.0293  0.1840
 1938PW      WP10749  10.244   4.344   9.972  0.2743 -0.3827 -0.1799
 1938PW      WM10750  10.263   4.349  10.154  0.0907 -0.0516  0.0927
 1939PW       W10751   7.562   4.670   8.875  0.0665  0.4085 -0.2391
 1939PW      WP10752   7.436   4.653   8.818  0.3554  0.3327 -0.8923
 1939PW      WM10753   7.634   4.604   8.775 -0.0605 -0.1118 -0.0032
 1940PW       W10754   7.124   3.329   4.089  0.0062  0.3149  0.3990
 1940PW      WP10755   7.264   3.335   4.081  0.0528 -0.3887  0.4241
 1940PW      WM10756   7.036   3.391   4.000  0.0542  0.2813  0.3283
 1941PW       W10757   4.944   6.285   2.218 -0.1820  0.2015 -0.1818
 1941PW      WP10758   4.820   6.297   2.283 -0.0744 -0.0336  0.0749
 1941PW      WM10759   4.995   6.173   2.150  0.0315  0.1875 -0.0020
 1942PW       W10760  10.012   5.681   9.618 -0.1893  0.2913  0.1228
 1942PW      WP10761  10.133   5.612   9.627 -0.3096  0.0974  0.3087
 1942PW      WM10762   9.932   5.790   9.579 -0.3677  0.2593  0.3904
 1943PW       W10763   2.346   1.368   2.555  0.4017  0.0875  0.0950
 1943PW      WP10764   2.256   1.467   2.599 -0.1762 -0.3235 -0.1058
 1943PW      WM10765   2.398   1.241   2.530  0.0679  0.0384 -0.4226
 1944PW       W10766   1.338   1.392  12.096  0.3377  0.1671 -0.1062
 1944PW      WP10767   1.302   1.400  12.232 -0.0638 -0.5978 -0.1355
 1944PW      WM10768   1.238   1.295  12.080 -0.0302  0.4442  0.3598
 1945PW       W10769   0.771  10.450   3.774  0.2789  0.5325  0.0457
 1945PW      WP10770   0.698  10.561   3.733 -0.3735  0.0309 -0.2482
 1945PW      WM10771   0.647  10.500   3.814 -0.1288 -0.3342 -0.0067
 1946PW       W10772   3.487   3.531   9.671 -0.2157  0.0943  0.3189
 1946PW      WP10773   3.515   3.633   9.763  0.0315  0.0849  0.2564
 1946PW      WM10774   3.578   3.426   9.679 -0.3058  0.0069  0.2205
 1947PW       W10775  11.473   7.716   3.567  0.1221 -0.3857  0.0970
 1947PW      WP10776  11.385   7.712   3.459  0.3885 -0.4574 -0.1248
 1947PW      WM10777  11.426   7.587   3.595  0.1569 -0.4031  0.0778
 1948PW       W10778   0.090  10.761   4.434  0.1245 -0.4092  0.2867
 1948PW      WP10779   0.102  10.641   4.505  0.3061 -0.5834 -0.0297
 1948PW      WM10780   0.027  10.818   4.323 -0.4149 -0.0387  0.7518
 1949PW       W10781   3.273   0.729  13.187 -0.1278 -0.0662  0.1205
 1949PW      WP10782   3.350   0.714  13.071  0.0925  0.1610  0.2309
 1949PW      WM10783   3.253   0.866  13.208 -0.1799  0.0008 -0.3206
 1950PW       W10784  10.155   9.557   1.311 -0.1862  0.1967  0.0730
 1950PW      WP10785  10.020   9.582   1.286 -0.2507 -0.0353  0.1774
 1950PW      WM10786  10.098   9.437   1.267  0.6849 -0.0698 -0.4645
 1951PW       W10787  10.325   1.007   4.784  0.1145 -0.2252  0.0089
 1951PW      WP10788  10.286   1.016   4.650  0.6003 -0.2689 -0.1437
 1951PW      WM10789  10.453   0.951   4.787  0.1686 -0.0980  0.0809
 1952PW       W10790   0.951   7.544   1.509 -0.1016  0.1657 -0.2946
 1952PW      WP10791   0.847   7.564   1.600  0.2771 -0.1109  0.2246
 1952PW      WM10792   0.989   7.451   1.411 -0.1211 -0.1778  0.0143
 1953PW       W10793   0.529   6.740   3.452 -0.4028 -0.4212  0.0529
 1953PW      WP10794   0.529   6.729   3.592 -0.3655  0.2557  0.1202
 1953PW      WM10795   0.625   6.638   3.461 -0.2832 -0.2858  0.4010
 1954PW       W10796   5.421   6.233   2.299  0.0791 -0.3342  0.3111
 1954PW      WP10797   5.379   6.140   2.204  0.0045  0.1358 -0.1420
 1954PW      WM10798   5.533   6.237   2.383  0.0072 -0.3837  0.4094
 1955PW       W10799   5.609   8.152   2.517 -0.2210 -0.8173 -0.0798
 1955PW      WP10800   5.533   8.207   2.413  0.0784  0.0729  0.1288
 1955PW      WM10801   5.494   8.093   2.465 -0.4575 -0.3780 -0.0820
 1956PW       W10802   9.223   9.540   2.625  0.0213 -0.3618 -0.1950
 1956PW      WP10803   9.312   9.467   2.705  0.3631 -0.0173 -0.2480
 1956PW      WM10804   9.205   9.571   2.760 -0.2469 -0.0511 -0.2930
 1957PW       W10805   9.115   1.622  11.873  0.0187  0.2186 -0.2081
 1957PW      WP10806   9.134   1.484  11.860  0.1625  0.1246  0.6853
 1957PW      WM10807   9.031   1.511  11.861  0.2762  0.0097 -0.1317
 1958PW       W10808   7.891   0.494   3.966 -0.5883  0.0394 -0.2910
 1958PW      WP10809   7.993   0.502   3.869 -0.0971  0.4530  0.2254
 1958PW      WM10810   7.890   0.397   4.067  0.2262  0.7543  0.4963
 1959PW       W10811   5.898   4.845  10.565  0.2024 -0.0897  0.0146
 1959PW      WP10812   5.986   4.885  10.666 -0.4027  0.1931  0.4596
 1959PW      WM10813   6.016   4.789  10.615  0.1537  0.3306  0.6441
 1960PW       W10814   4.854   8.751   5.085  0.4452  0.0581  0.1192
 1960PW      WP10815   4.745   8.664   5.099  0.3931  0.1310  0.1702
 1960PW      WM10816   4.834   8.751   4.946 -0.3076 -0.0796  0.2065
 1961PW       W10817   2.283   9.800   9.503  0.0837 -0.1446  0.0756
 1961PW      WP10818   2.348   9.676   9.498  0.6625  0.1471 -0.2740
 1961PW      WM10819   2.211   9.907   9.557  0.3458  0.2201 -0.2684
 1962PW       W10820  11.624   1.526   2.839  0.0365  0.2279  0.0033
 1962PW      WP10821  11.662   1.490   2.709  0.3196 -0.3374  0.2266
 1962PW      WM10822  11.744   1.467   2.797  0.0589  0.5622 -0.4422
 1963PW       W10823   8.899  10.533   9.472  0.1682  0.4581 -0.1111
 1963PW      WP10824   8.859  10.594   9.353 -0.7857  0.1407  0.0017
 1963PW      WM10825   8.839  10.562   9.595 -0.4288 -0.3858 -0.1560
 1964PW       W10826   5.675  10.280   0.155 -0.3227 -0.2920  0.3676
 1964PW      WP10827   5.617  10.277   0.283  0.2865  0.1128  0.6806
 1964PW      WM10828   5.776  10.197   0.106  0.0870  0.0164  0.6575
 1965PW       W10829  10.240   4.004   2.262  0.1769 -0.0470  0.3782
 1965PW      WP10830  10.365   4.067   2.252  0.0346  0.1800 -0.0546
 1965PW      WM10831  10.187   4.132   2.280 -0.3322 -0.2390  0.3243
 1966PW       W10832  10.571   4.801   1.022  0.3991 -0.2981  0.0950
 1966PW      WP10833  10.577   4.881   1.137 -0.0026 -0.3224  0.1419
 1966PW      WM10834  10.590   4.690   0.939  0.1699 -0.1501 -0.1593
 1967PW       W10835   5.751   1.836  10.590  0.0564 -0.0452 -0.0291
 1967PW      WP10836   5.682   1.958  10.585  0.3726  0.1633  0.3962
 1967PW      WM10837   5.675   1.753  10.673  0.3842  0.0420  0.3769
 1968PW       W10838  11.665   4.728   3.310 -0.3153  0.0223 -0.3206
 1968PW      WP10839  11.694   4.660   3.191 -0.0637 -0.0816 -0.2016
 1968PW      WM10840  11.580   4.623   3.346 -0.0658 -0.0712  0.0198
 1969PW       W10841  10.519  10.966  11.319  0.0002  0.1723 -0.1744
 1969PW      WP10842  10.461  10.840  11.299 -0.3441  0.2921  0.0333
 1969PW      WM10843  10.503  10.927  11.185  0.4537  0.0139 -0.1923
 1970PW       W10844   8.552   0.606   9.519  0.0690  0.0858  0.0765
 1970PW      WP10845   8.531   0.541   9.397  0.0730 -0.7516  0.4858
 1970PW      WM10846   8.484   0.653   9.632 -0.3973 -0.2182 -0.0629
 1971PW       W10847  10.504   2.736  10.976 -0.2010  0.0396  0.0148
 1971PW      WP10848  10.420   2.846  10.992  0.1178  0.2363  0.4339
 1971PW      WM10849  10.631   2.794  10.982 -0.3220  0.3172 -0.0591
 1972PW       W10850   6.647   5.532  10.125  0.0668 -0.5326 -0.3261
 1972PW      WP10851   6.571   5.516  10.241  0.0012 -0.2076 -0.3181
 1972PW      WM10852   6.757   5.603  10.174  0.0832 -0.6700 -0.1604
 1973PW       W10853   4.253   2.180  13.267  0.0550  0.0116 -0.5795
 1973PW      WP10854   4.241   2.048  13.221 -0.1008 -0.0894 -0.2624
 1973PW      WM10855   4.144   2.172  13.354  0.1613 -0.1261 -0.4564
 1974PW       W10856   0.484  11.239   0.153  0.1012  0.0663  0.4470
 1974PW      WP10857   0.614  11.193   0.128  0.0577  0.1860 -0.0467
 1974PW      WM10858   0.504  11.374   0.123  0.0348 -0.0572 -0.2417
 1975PW       W10859  10.386   3.022   4.233 -0.3743  0.4905 -0.0414
 1975PW      WP10860  10.405   2.891   4.187  0.3399  0.5440  0.0486
 1975PW      WM10861  10.392   3.161   4.245  0.2357  0.5186 -0.4675
 1976PW       W10862   2.904   3.027  11.671 -0.1949  0.1828 -0.0619
 1976PW      WP10863   2.939   3.109  11.779 -0.1623  0.3351 -0.1865
 1976PW      WM10864   3.028   2.971  11.641 -0.2477  0.1517 -0.2265
 1977PW       W10865   8.592  10.994   4.417  0.1141  0.3891  0.1472
 1977PW      WP10866   8.678  10.978   4.307 -0.0281  0.2738  0.0512
 1977PW      WM10867   8.524  11.109   4.459  0.5258  0.5304  0.4583
 1978PW       W10868   7.867   8.416   9.343 -0.1281  0.1523 -0.1118
 1978PW      WP10869   7.881   8.378   9.477 -0.1654  0.0306 -0.1423
 1978PW      WM10870   7.734   8.371   9.342 -0.0778 -0.0038  0.0253
 1979PW       W10871   0.856   2.900   5.327  0.1769 -0.0323 -0.1124
 1979PW      WP10872   0.970   2.820   5.326  0.2240  0.0353 -0.2990
 1979PW      WM10873   0.795   2.876   5.204 -0.1125 -1.0379  0.1772
 1980PW       W10874   4.287   0.328   1.872 -0.2686 -0.4004 -0.2334
 1980PW      WP10875   4.364   0.379   1.977 -0.1741 -0.3086 -0.3451
 1980PW      WM10876   4.207   0.386   1.773 -0.2103 -0.1296 -0.1247
 1981PW       W10877   1.813  10.397  10.380 -0.5515  0.3629 -0.0916
 1981PW      WP10878   1.741  10.332  10.480 -0.1574  0.4555  0.2661
 1981PW      WM10879   1.783  10.494  10.476  0.0850 -0.0748  0.6033
 1982PW       W10880   4.475   1.105   0.336 -0.3703 -0.1864 -0.1542
 1982PW      WP10881   4.403   1.218   0.297  0.0630 -0.0350 -0.5626
 1982PW      WM10882   4.464   0.999   0.246 -0.1764  0.0837 -0.5073
 1983PW       W10883   1.591  11.211   2.612 -0.1679 -0.0653 -0.1805
 1983PW      WP10884   1.556  11.164   2.739  0.6812  0.4860  0.3070
 1983PW      WM10885   1.682  11.106   2.625 -0.0663  0.0770  0.3951
 1984PW       W10886   8.618   7.602   2.979 -0.3617 -0.0050 -0.4834
 1984PW      WP10887   8.645   7.504   3.076  0.3817  0.0761 -0.5820
 1984PW      WM10888   8.506   7.532   2.934 -0.2089 -0.5625 -0.0580
 1985PW       W10889   4.910  10.944   9.464 -0.2097 -0.0170 -0.0780
 1985PW      WP10890   4.854  10.887   9.579 -0.3540  0.1870 -0.0445
 1985PW      WM10891   4.972  10.843   9.389 -0.5361 -0.3460  0.0751
 1986PW       W10892   3.776   5.747   8.429 -0.3357 -0.3029  0.2706
 1986PW      WP10893   3.653   5.763   8.364 -0.0691 -0.1579 -0.2274
 1986PW      WM10894   3.885   5.813   8.486 -0.0654 -0.1150 -0.4056
 1987PW       W10895   3.876  11.693   8.392  0.1371  0.1873 -0.1164
 1987PW      WP10896   3.987  11.765   8.346  0.6005 -0.4418 -0.0517
 1987PW      WM10897   3.853  11.621   8.510 -0.0559 -0.0649 -0.3021
 1988PW       W10898   8.360  11.447   2.989  0.1247 -0.1772  0.0215
 1988PW      WP10899   8.393  11.551   2.901 -0.3100 -0.0671 -0.0234
 1988PW      WM10900   8.478  11.401   2.929 -0.1028 -0.5115 -0.1880
 1989PW       W10901   8.278   2.597  12.222 -0.0928  0.1781 -0.5494
 1989PW      WP10902   8.342   2.708  12.279 -0.0996 -0.0467 -0.0825
 1989PW      WM10903   8.210   2.717  12.244 -0.6049 -0.1903  0.0079
 1990PW       W10904   6.300   6.870   3.634  0.0143  0.4077  0.1047
 1990PW      WP10905   6.401   6.859   3.731  0.0954  0.0122 -0.0154
 1990PW      WM10906   6.205   6.810   3.550  0.3964 -0.0896  0.0018
 1991PW       W10907  11.596   6.872   4.566 -0.1721  0.0103  0.2190
 1991PW      WP10908  11.543   6.832   4.443  0.1122  0.0996  0.0619
 1991PW      WM10909  11.674   6.971   4.628  0.0978 -0.0593  0.0006
 1992PW       W10910   0.162   5.812   3.440  0.4906  0.2936 -0.1994
 1992PW      WP10911   0.249   5.771   3.541  0.2030  0.0051 -0.0578
 1992PW      WM10912   0.149   5.689   3.374 -0.8507  0.0363  0.3622
 1993PW       W10913   9.582   4.062   1.607  0.2799 -0.1205 -0.2455
 1993PW      WP10914   9.522   4.079   1.482 -0.1554  0.0026 -0.0285
 1993PW      WM10915   9.669   4.161   1.561 -0.0172  0.1036 -0.3393
 1994PW       W10916   0.901   9.992  11.979 -0.0922  0.0042 -0.4139
 1994PW      WP10917   0.762  10.009  11.972 -0.1400  0.2506  0.4555
 1994PW      WM10918   0.959   9.890  11.902 -0.1755 -0.7088  0.3908
 1995PW       W10919   0.487   0.521   8.815 -0.0807  0.2653  0.1419
 1995PW      WP10920   0.623   0.527   8.845 -0.0241  0.0447 -0.0545
 1995PW      WM10921   0.368   0.591   8.791 -0.1522  0.2863  0.5200
 1996PW       W10922  12.007  10.322   4.810  0.1337 -0.0715 -0.2299
 1996PW      WP10923  11.934  10.340   4.929  0.6221  0.2421  0.0386
 1996PW      WM10924  12.007  10.187   4.847  0.0240 -0.0196 -0.0335
 1997PW       W10925   9.365   7.197   1.548  0.1827  0.2235  0.2974
 1997PW      WP10926   9.234   7.161   1.579  0.2392 -0.2244  0.0619
 1997PW      WM10927   9.487   7.129   1.554  0.2280  0.2767  0.0449
 1998PW       W10928   1.561   7.317  12.354 -0.0058 -0.1119 -0.1896
 1998PW      WP10929   1.499   7.226  12.267  0.0325 -0.2932 -0.0303
 1998PW      WM10930   1.700   7.326  12.368 -0.0835  0.3518  0.5415
 1999PW       W10931  10.836   3.568   9.304 -0.1274  0.1966  0.0966
 1999PW      WP10932  10.883   3.580   9.173 -0.1937  0.2671  0.0786
 1999PW      WM10933  10.805   3.505   9.425 -0.1765  0.2954  0.1358
 2000PW       W10934   0.615   8.551  12.888 -0.1825 -0.2259  0.2782
 2000PW      WP10935   0.744   8.499  12.904 -0.1687 -0.3927 -0.2571
 2000PW      WM10936   0.589   8.521  12.753 -0.1741  0.0042  0.2224
 2001PW       W10937   2.343   2.409  13.168 -0.0205 -0.1642 -0.3977
 2001PW      WP10938   2.369   2.534  13.110  0.4697  0.1112  0.3428
 2001PW      WM10939   2.304   2.352  13.047  0.3008  0.0299 -0.5987
 2002PW       W10940   9.305   0.093   3.110  0.0119 -0.2127 -0.0575
 2002PW      WP10941   9.373   0.197   3.174 -0.1929 -0.0617 -0.0815
 2002PW      WM10942   9.198   0.143   3.036  0.0207 -0.1695 -0.0407
 2003PW       W10943   6.214   7.706  12.271  0.3063  0.0372 -0.3694
 2003PW      WP10944   6.235   7.642  12.394  0.2759 -0.0983 -0.4341
 2003PW      WM10945   6.085   7.661  12.238  0.3945 -0.2072 -0.3926
 2004PW       W10946   5.246   0.697  11.149 -0.0845  0.3494 -0.3153
 2004PW      WP10947   5.208   0.800  11.063  0.0568  0.6150 -0.0672
 2004PW      WM10948   5.165   0.583  11.135 -0.2663  0.4347 -0.0104
 2005PW       W10949   1.028   6.561   1.754 -0.4386  0.0828  0.2154
 2005PW      WP10950   0.967   6.437   1.732 -0.2247  0.0245 -0.0754
 2005PW      WM10951   0.935   6.606   1.660 -0.2359 -0.3422 -0.2117
 2006PW       W10952   3.124   3.970  12.557 -0.2374  0.2121  0.0358
 2006PW      WP10953   3.167   3.942  12.426  0.2485  0.4520  0.1331
 2006PW      WM10954   3.032   3.869  12.587 -0.4116  0.3490 -0.0237
 2007PW       W10955   1.989   0.517   9.132  0.1240 -0.0044  0.1018
 2007PW      WP10956   2.026   0.437   9.241  0.1125 -0.2796 -0.0947
 2007PW      WM10957   1.963   0.573   9.006  0.1117  0.4322  0.2881
 2008PW       W10958   0.095   4.959   4.677 -0.0606  0.1411 -0.0158
 2008PW      WP10959   0.048   4.972   4.808 -0.1672 -0.1071 -0.0284
 2008PW      WM10960   0.167   4.841   4.657 -0.2429  0.0152  0.0542
 2009PW       W10961   2.179   6.930  10.363 -0.3771 -0.0662 -0.0429
 2009PW      WP10962   2.204   6.896  10.230  0.4668 -0.7369  0.2303
 2009PW      WM10963   2.075   7.014  10.401 -0.2517 -0.1630  0.5720
 2010PW       W10964   3.445   6.120   8.538  0.2875 -0.0611 -0.0735
 2010PW      WP10965   3.420   6.209   8.433  0.0086  0.3273  0.3007
 2010PW      WM10966   3.425   6.228   8.625 -0.2478 -0.1707 -0.0424
 2011PW       W10967   9.502   1.783  10.839 -0.6689 -0.3357 -0.0985
 2011PW      WP10968   9.390   1.781  10.923 -0.5026  0.0748  0.1437
 2011PW      WM10969   9.595   1.877  10.794 -0.0698 -0.6071  0.5026
 2012PW       W10970   4.335   9.065  11.802  0.1327  0.4780 -0.2412
 2012PW      WP10971   4.201   9.083  11.769  0.0203 -0.3058 -0.3151
 2012PW      WM10972   4.342   9.161  11.904 -0.3787  0.4691 -0.1853
 2013PW       W10973   8.513   7.952  11.228  0.4679  0.1155 -0.2870
 2013PW      WP10974   8.449   8.064  11.282  0.7214  0.1085  0.0482
 2013PW      WM10975   8.551   7.835  11.161  0.2834  0.1545 -0.4659
 2014PW       W10976  11.243   6.028   1.240 -0.0139 -0.1782 -0.2095
 2014PW      WP10977  11.169   6.037   1.359 -0.4491  0.1510 -0.4888
 2014PW      WM10978  11.217   6.047   1.104  0.4161  0.4106 -0.2287
 2015PW       W10979  12.060   1.307  12.313  0.2050  0.2443  0.3120
 2015PW      WP10980  12.054   1.371  12.189  0.6906  0.1029  0.2075
 2015PW      WM10981  12.158   1.247  12.393  0.2164 -0.1747 -0.0012
 2016PW       W10982   3.166  11.586   4.864  0.0579  0.2252  0.1283
 2016PW      WP10983   3.291  11.542   4.909  0.1097 -0.0063 -0.2230
 2016PW      WM10984   3.101  11.621   4.745 -0.0315 -0.1836  0.0512
 2017PW       W10985  10.150  10.292   0.688 -0.6018 -0.0246  0.1904
 2017PW      WP10986  10.266  10.233   0.738 -0.6805 -0.2612  0.1012
 2017PW      WM10987  10.131  10.357   0.811 -0.3122  0.0721  0.1864
 2018PW       W10988   7.119   2.021   5.056  0.0997 -0.5185  0.0972
 2018PW      WP10989   7.204   2.066   5.158  0.1459  0.0633 -0.1762
 2018PW      WM10990   6.987   2.066   5.042  0.2665 -0.1144 -0.3231
 2019PW       W10991   2.807   1.499  13.283  0.0471  0.4969 -0.2086
 2019PW      WP10992   2.801   1.390  13.196  0.2848  0.2055  0.1250
 2019PW      WM10993   2.941   1.476  13.250 -0.0418 -0.1407 -0.1871
 2020PW       W10994   6.711   6.443   0.357 -0.1580 -0.0663  0.2386
 2020PW      WP10995   6.743   6.320   0.415  0.1117 -0.0853  0.0566
 2020PW      WM10996   6.575   6.467   0.382 -0.1411 -0.1811  0.4553
 2021PW       W10997  10.062  11.632   2.832  0.3190  0.0963 -0.0676
 2021PW      WP10998  10.168  11.710   2.880  0.3050 -0.0056  0.1365
 2021PW      WM10999   9.981  11.581   2.935  0.3969  0.3245  0.1117
 2022PW       W11000   8.047   4.695  12.350  0.1294  0.0734 -0.0515
 2022PW      WP11001   8.026   4.767  12.468  0.1489 -0.2951  0.1850
 2022PW      WM11002   8.161   4.712  12.428 -0.0633  0.3611  0.1764
 2023PW       W11003   1.576   9.815   3.865 -0.2711  0.0582 -0.0838
 2023PW      WP11004   1.442   9.821   3.904 -0.2584  0.0532 -0.0390
 2023PW      WM11005   1.580   9.853   3.731  0.2472 -0.0030 -0.0956
 2024PW       W11006   6.884   7.067  10.647  0.2842  0.6361 -0.2036
 2024PW      WP11007   6.869   7.202  10.682  0.1769  0.4691  0.4797
 2024PW      WM11008   6.979   7.020  10.556  0.2164 -0.1085  0.0743
 2025PW       W11009   0.603   5.443   3.098 -0.5636 -0.2488  0.0012
 2025PW      WP11010   0.702   5.399   3.186 -0.3879 -0.1513 -0.1445
 2025PW      WM11011   0.496   5.525   3.135 -0.1825  0.2732  0.0044
 2026PW       W11012   1.137   9.539   4.873  0.2813 -0.1899 -0.2585
 2026PW      WP11013   1.235   9.550   4.972  0.0570 -0.3230 -0.0148
 2026PW      WM11014   1.031   9.467   4.816  0.0360  0.0037 -0.0571
 2027PW       W11015   7.111   0.162   8.497 -0.3215 -0.1644 -0.3357
 2027PW      WP11016   7.227   0.088   8.526  0.0374  0.2683 -0.6106
 2027PW      WM11017   7.029   0.184   8.608  0.4006 -0.1137  0.2276
 2028PW       W11018   6.906   9.793  12.781  0.1049  0.3147  0.7845
 2028PW      WP11019   6.778   9.817  12.834 -0.2977  0.6933 -0.2422
 2028PW      WM11020   6.924   9.654  12.767 -0.5359  0.2909 -0.6420
 2029PW       W11021   0.854   5.259   2.550 -0.3822  0.0557  0.2796
 2029PW      WP11022   0.859   5.234   2.412 -0.3653  0.1205  0.2683
 2029PW      WM11023   0.829   5.393   2.582 -0.5738  0.0593  0.1256
 2030PW       W11024   8.283   1.540   9.654  0.1849 -0.1458 -0.4144
 2030PW      WP11025   8.348   1.533   9.778 -0.1801 -0.0835 -0.2109
 2030PW      WM11026   8.320   1.664   9.600 -0.0770  0.2399  0.2293
 2031PW       W11027   6.976   2.135   8.281 -0.1182 -0.1314 -0.0041
 2031PW      WP11028   6.893   2.027   8.251 -0.4679  0.1869 -0.2319
 2031PW      WM11029   6.850   2.138   8.340 -0.2017 -0.5522 -0.1485
 2032PW       W11030   9.976   0.776  12.646 -0.1865  0.1082 -0.4030
 2032PW      WP11031  10.074   0.823  12.559 -0.0119 -0.1723 -0.3623
 2032PW      WM11032  10.073   0.847  12.718  0.1694 -0.6541 -0.0750
 2033PW       W11033   4.902   5.402   0.863 -0.2239 -0.2205 -0.0321
 2033PW      WP11034   4.808   5.506   0.857  0.2597  0.2304 -0.1460
 2033PW      WM11035   4.953   5.326   0.758  0.1316 -0.4364  0.2833
 2034PW       W11036   2.176   1.488   0.644  0.0415 -0.4421  0.1578
 2034PW      WP11037   2.290   1.416   0.678  0.4317  0.0729  0.0050
 2034PW      WM11038   2.043   1.485   0.688 -0.1025  0.0839 -0.1848
 2035PW       W11039   2.735   2.254  12.137  0.0319  0.2551 -0.1879
 2035PW      WP11040   2.734   2.392  12.159 -0.1251  0.2135  0.0932
 2035PW      WM11041   2.790   2.161  12.048 -0.3677 -0.1808  0.0000
 2036PW       W11042   5.616  10.406   8.295 -0.3492 -0.2159 -0.1940
 2036PW      WP11043   5.590  10.539   8.327  0.1700 -0.0602 -0.3672
 2036PW      WM11044   5.491  10.406   8.233 -0.3365  0.0406 -0.2246
 2037PW       W11045   5.991  10.237   8.993 -0.0152  0.1379  0.0317
 2037PW      WP11046   5.871  10.298   8.956  0.2076  0.3949 -0.3030
 2037PW      WM11047   5.872  10.169   9.023  0.1978 -0.2642  0.0067
 2038PW       W11048   7.401   1.038   3.208 -0.1475 -0.5924  0.3003
 2038PW      WP11049   7.272   1.085   3.184  0.0443 -0.4128 -0.5296
 2038PW      WM11050   7.411   0.966   3.089 -0.2254 -0.0900 -0.0268
 2039PW       W11051   8.498   0.387  10.932  0.0473 -0.0746  0.2118
 2039PW      WP11052   8.540   0.281  10.850 -0.1710 -0.2244  0.2883
 2039PW      WM11053   8.451   0.383  11.064 -0.4627  0.2184  0.0508
 2040PW       W11054   6.474  11.374   8.064 -0.1994  0.0871 -0.7429
 2040PW      WP11055   6.420  11.245   8.078  0.5891 -0.2114  0.0072
 2040PW      WM11056   6.584  11.454   8.098 -0.1532 -0.3046  0.1943
 2041PW       W11057   6.106   2.333   2.930  0.2812 -0.3329  0.1149
 2041PW      WP11058   6.035   2.454   2.926  0.2556 -0.3261  0.5229
 2041PW      WM11059   6.007   2.253   2.989 -0.5335  0.4054 -0.1263
 2042PW       W11060   2.930   9.207  11.677  0.3407 -0.0631  0.3026
 2042PW      WP11061   2.883   9.243  11.550 -0.0561  0.2001  0.5145
 2042PW      WM11062   2.972   9.094  11.605 -0.0541 -0.1997  0.2727
 2043PW       W11063   6.733   4.977   8.829  0.5270  0.1977 -0.5449
 2043PW      WP11064   6.732   5.094   8.905 -0.0258 -0.0826 -0.0763
 2043PW      WM11065   6.641   4.949   8.931  0.4814 -0.4312 -0.7344
 2044PW       W11066  11.021   5.992   8.643  0.4096  0.2667  0.2177
 2044PW      WP11067  11.143   5.964   8.580  0.1262  0.0952 -0.2822
 2044PW      WM11068  11.037   6.065   8.524  0.3237 -0.6737 -0.4267
 2045PW       W11069   6.455   4.193  11.812  0.2928 -0.4363  0.2188
 2045PW      WP11070   6.387   4.102  11.731  0.1291  0.1408 -0.3344
 2045PW      WM11071   6.475   4.106  11.920  0.4946 -0.3222  0.2757
 2046PW       W11072  12.020   1.941   1.696 -0.5120  0.0922 -0.2432
 2046PW      WP11073  12.027   1.808   1.739  0.3700  0.3413  0.5470
 2046PW      WM11074  12.032   1.931   1.557  0.0193  0.0132 -0.2009
 2047PW       W11075   3.258   2.448  10.867  0.1116  0.1243  0.1376
 2047PW      WP11076   3.260   2.585  10.893 -0.1598  0.1236  0.1707
 2047PW      WM11077   3.197   2.376  10.971 -0.3694  0.5481  0.1682
 2048PW       W11078   3.110   6.618   5.113  0.2004 -0.5353  0.1461
 2048PW      WP11079   2.980   6.582   5.076  0.0358 -0.0901  0.2532
 2048PW      WM11080   3.204   6.616   5.010  0.1438  0.0762  0.0653
 2049PW       W11081   4.513   0.822  11.919 -0.1266 -0.0172 -0.1994
 2049PW      WP11082   4.514   0.845  11.781  0.1865  0.5079 -0.1212
 2049PW      WM11083   4.551   0.688  11.921 -0.2172 -0.0449 -0.2974
 2050PW       W11084   9.018   0.214  10.023 -0.2572 -1.1535  0.3677
 2050PW      WP11085   8.937   0.190   9.911 -0.2742 -0.3141  0.1647
 2050PW      WM11086   8.999   0.338  10.087  0.4761 -0.3345 -0.7930
 2051PW       W11087   9.453   1.015   3.126 -0.0171 -0.6562 -0.0458
 2051PW      WP11088   9.320   1.024   3.169 -0.0834 -0.1643 -0.3261
 2051PW      WM11089   9.429   0.885   3.172  0.3381 -0.4460  0.8442
 2052PW       W11090   6.288   6.673  12.927 -0.0565 -0.0611  0.6606
 2052PW      WP11091   6.173   6.615  12.872  0.3776 -0.2945 -0.0662
 2052PW      WM11092   6.247   6.807  12.935 -0.0536  0.0330 -0.3296
 2053PW       W11093   1.074   4.201   9.240 -0.0993  0.5058 -0.0684
 2053PW      WP11094   0.960   4.277   9.211 -0.4447  0.1069  0.1903
 2053PW      WM11095   1.171   4.252   9.327  0.2961  0.1958 -0.3076
 2054PW       W11096  11.606  11.962  13.024  0.2145  0.4553  0.2878
 2054PW      WP11097  11.496  11.888  12.979  0.4163  0.3490 -0.0464
 2054PW      WM11098  11.624  12.006  13.156 -0.1431 -0.1969  0.5732
 2055PW       W11099   7.992   1.320   9.274  0.0173 -0.0541 -0.1145
 2055PW      WP11100   8.038   1.205   9.339 -0.5489 -0.1144  0.2144
 2055PW      WM11101   8.063   1.439   9.254  0.4820 -0.3037 -0.0194
 2056PW       W11102   1.592   8.937   8.727  0.3795 -0.0415  0.0330
 2056PW      WP11103   1.519   9.051   8.690  0.3079  0.0125  0.3303
 2056PW      WM11104   1.620   8.828   8.644  0.3138  0.1406 -0.2349
 2057PW       W11105   4.785   9.841   2.333  0.0964  0.2246  0.5041
 2057PW      WP11106   4.916   9.884   2.308  0.0934  0.0947  0.2493
 2057PW      WM11107   4.752   9.925   2.226 -0.1823  0.1139  0.4998
 2058PW       W11108   9.207   0.357   4.221  0.3300 -0.1676 -0.0761
 2058PW      WP11109   9.338   0.398   4.194  0.2388  0.2627  0.1004
 2058PW      WM11110   9.173   0.221   4.218  0.1869 -0.1368  0.0434
 2059PW       W11111   5.280   9.791   3.962 -0.3057  0.0458  0.0407
 2059PW      WP11112   5.265   9.819   3.826 -0.1564 -0.3145 -0.0548
 2059PW      WM11113   5.303   9.656   3.934 -0.1187  0.0692  0.0717
 2060PW       W11114   7.540   1.056   9.016 -0.0947  0.6030 -0.1120
 2060PW      WP11115   7.660   1.069   8.945 -0.1131  0.1643 -0.2376
 2060PW      WM11116   7.424   0.981   9.036 -0.0075  0.4221 -0.2635
 2061PW       W11117   6.696   6.431   3.003 -0.2619 -0.1647 -0.3329
 2061PW      WP11118   6.815   6.357   3.008 -0.2000 -0.0554 -0.0789
 2061PW      WM11119   6.572   6.411   3.064 -0.2256  0.4704  0.0021
 2062PW       W11120   5.936   9.272   1.778 -0.1788  0.1787 -0.2809
 2062PW      WP11121   5.815   9.300   1.842 -0.1164  0.2944 -0.2125
 2062PW      WM11122   5.932   9.317   1.646 -0.5531  0.5595 -0.1521
 2063PW       W11123   6.315   9.602  11.063 -0.0381 -0.2745 -0.1853
 2063PW      WP11124   6.260   9.661  10.949 -0.0261 -0.1369 -0.1209
 2063PW      WM11125   6.229   9.510  11.123 -0.2058 -0.1940 -0.2989
 2064PW       W11126   2.447  11.703   2.437 -0.2277 -0.0287 -0.0709
 2064PW      WP11127   2.310  11.724   2.420 -0.2553 -0.1263  0.0286
 2064PW      WM11128   2.345  11.631   2.374  0.0308 -0.2275 -0.2804
 2065PW       W11129  10.034   8.903   2.723 -0.3277  0.0786 -0.0583
 2065PW      WP11130  10.141   8.926   2.635  0.3148 -0.0347  0.6448
 2065PW      WM11131   9.900   8.878   2.754 -0.2484 -0.2794  0.0248
 2066PW       W11132   0.460   2.739  13.030  0.5340  0.0452 -0.1143
 2066PW      WP11133   0.530   2.700  13.145 -0.3266 -0.4983  0.2706
 2066PW      WM11134   0.486   2.877  13.034  0.2846  0.0956 -0.1190
 2067PW       W11135  12.064   9.759   9.127 -0.1850  0.3224  0.2176
 2067PW      WP11136  12.064   9.877   9.203 -0.0167 -0.1419  0.9996
 2067PW      WM11137  12.148   9.844   9.055  0.1367 -0.0329  0.1610
 2068PW       W11138  10.971   1.164   9.303  0.0367  0.5727  0.1584
 2068PW      WP11139  10.849   1.097   9.317  0.2563  0.0883 -0.0911
 2068PW      WM11140  10.953   1.238   9.420 -0.8405 -0.1221  0.5244
 2069PW       W11141   0.336   9.766   2.200  0.3237 -0.5687  0.0886
 2069PW      WP11142   0.230   9.703   2.266 -0.2705  0.0061 -0.2499
 2069PW      WM11143   0.421   9.865   2.251 -0.0406 -0.0001 -0.3477
 2070PW       W11144   6.285   8.154  -0.035 -0.2917  0.1743  0.0415
 2070PW      WP11145   6.345   8.270   0.017 -0.3291  0.1021  0.2534
 2070PW      WM11146   6.351   8.073   0.059 -0.3646  0.1035  0.0315
 2071PW       W11147   0.551   8.959  11.583 -0.3563  0.4253  0.0016
 2071PW      WP11148   0.645   8.946  11.686  0.1074 -0.0752 -0.4478
 2071PW      WM11149   0.604   8.896  11.469 -0.1232  0.3304  0.1574
 2072PW       W11150   7.906  11.427   0.278 -0.1481  0.4070 -0.4966
 2072PW      WP11151   7.909  11.565   0.251  0.0547  0.4660 -0.2009
 2072PW      WM11152   7.806  11.386   0.188 -0.2485 -0.2861 -0.1020
 2073PW       W11153   6.860  11.139   3.549 -0.0907  0.0716  0.1992
 2073PW      WP11154   6.937  11.093   3.441 -0.3385  0.0020  0.0482
 2073PW      WM11155   6.727  11.097   3.537  0.0207 -0.1309 -0.6789
 2074PW       W11156   4.664  10.488   8.501  0.2758 -0.0336  0.2468
 2074PW      WP11157   4.572  10.423   8.417  0.2083  0.4842 -0.1080
 2074PW      WM11158   4.756  10.382   8.500  0.1597 -0.1397 -0.1195
 2075PW       W11159   9.769   3.418  10.568 -0.1144 -0.4364  0.1553
 2075PW      WP11160   9.908   3.423  10.586 -0.0955 -0.1346 -0.0360
 2075PW      WM11161   9.653   3.482  10.614  0.1068 -0.1673  0.3561
 2076PW       W11162   5.132   6.344  11.966  0.1338  0.4081  0.4434
 2076PW      WP11163   5.001   6.347  11.915  0.2108  0.2878  0.2327
 2076PW      WM11164   5.247   6.352  11.887 -0.2074  0.3306 -0.0880
 2077PW       W11165   9.298   6.482   8.583  0.3383 -0.3388  0.2158
 2077PW      WP11166   9.378   6.581   8.525 -0.2494  0.0972  0.1080
 2077PW      WM11167   9.197   6.557   8.643  0.1447 -0.2201 -0.2394
 2078PW       W11168   1.180  10.966   5.010  0.0575 -0.0512 -0.1734
 2078PW      WP11169   1.145  10.843   4.955  0.0520 -0.1594  0.0647
 2078PW      WM11170   1.093  11.013   5.109  0.1651  0.1069 -0.1517
 2079PW       W11171  12.065   7.178   1.273 -0.2096 -0.0600  0.3173
 2079PW      WP11172  12.054   7.312   1.312 -0.1502 -0.1644  0.7208
 2079PW      WM11173  12.144   7.280   1.328  0.1867 -0.2572  0.1412
 2080PW       W11174   5.006   1.890   8.707  0.0951 -0.0779  0.4297
 2080PW      WP11175   4.920   1.917   8.814 -0.4811 -0.0966 -0.0057
 2080PW      WM11176   5.039   2.001   8.787 -0.2726  0.4182 -0.0711
 2081PW       W11177  10.589   5.324   5.170 -0.3344 -0.3107  0.0085
 2081PW      WP11178  10.591   5.463   5.185  0.4461 -0.2791 -0.1566
 2081PW      WM11179  10.706   5.280   5.234 -0.2496 -0.1615 -0.0412
 2082PW       W11180   1.296   3.608   1.316  0.6726 -0.1143  0.1096
 2082PW      WP11181   1.222   3.548   1.214  0.8084 -0.4400  0.1979
 2082PW      WM11182   1.257   3.684   1.427 -0.0061  0.2068 -0.3106
 2083PW       W11183  10.015   5.153   0.253  0.0842  0.0255  0.1040
 2083PW      WP11184   9.925   5.253   0.211 -0.1635 -0.3914 -0.4253
 2083PW      WM11185  10.065   5.149   0.384 -0.4240  0.3081  0.3218
 2084PW       W11186   4.378   0.699   3.922  0.2422 -0.2338  0.0585
 2084PW      WP11187   4.469   0.785   3.986 -0.2538  0.3476  0.0304
 2084PW      WM11188   4.293   0.759   3.829  0.7797  0.1608 -0.2056
 2085PW       W11189   2.678   1.514   4.057  0.0033  0.1337 -0.1216
 2085PW      WP11190   2.764   1.575   4.149  0.1358 -0.1304 -0.0665
 2085PW      WM11191   2.669   1.443   3.937 -0.1904  0.1250 -0.1036
 2086PW       W11192   6.248   3.153   2.258 -0.2659 -0.3187 -0.5301
 2086PW      WP11193   6.296   3.093   2.141  0.5926 -0.3358 -0.2083
 2086PW      WM11194   6.337   3.154   2.150  0.5434 -0.0026  0.0894
 2087PW       W11195  10.207   8.979  11.502 -0.6756 -0.3239 -0.0880
 2087PW      WP11196  10.204   8.851  11.446  0.4887 -0.1720 -0.6501
 2087PW      WM11197  10.093   9.026  11.569 -0.2518  0.2198  0.3063
 2088PW       W11198   5.660   8.590   2.019 -0.0192 -0.2525  0.1379
 2088PW      WP11199   5.545   8.571   1.942 -0.0700  0.7588 -0.0934
 2088PW      WM11200   5.766   8.499   2.031  0.1790 -0.0747 -0.1942
 2089PW       W11201   9.043   4.250   3.431  0.1045 -0.0634  0.1573
 2089PW      WP11202   8.984   4.352   3.507  0.1584  0.3425 -0.3232
 2089PW      WM11203   9.046   4.272   3.293  0.2074  0.8354  0.2725
 2090PW       W11204  10.458   6.016  10.423  0.0243 -0.0558  0.2307
 2090PW      WP11205  10.373   5.943  10.338  0.3048  0.0794 -0.1813
 2090PW      WM11206  10.536   6.041  10.309  0.4191 -0.3530  0.4280
 2091PW       W11207   6.807   3.164   4.481 -0.6671 -0.0608 -0.2202
 2091PW      WP11208   6.757   3.224   4.597 -0.1744 -0.3651  0.1726
 2091PW      WM11209   6.802   3.128   4.346  0.0955 -0.0989 -0.2623
 2092PW       W11210   0.190   7.541   1.511  0.4703  0.0990  0.8014
 2092PW      WP11211   0.145   7.409   1.507  0.2855  0.1596  0.1600
 2092PW      WM11212   0.103   7.563   1.618 -0.2887  0.2294  0.2065
 2093PW       W11213  11.609   6.473   1.986  0.0656  0.2359 -0.1359
 2093PW      WP11214  11.664   6.514   2.108 -0.2802  0.0108  0.1026
 2093PW      WM11215  11.723   6.394   1.971 -0.3953 -0.5064  0.0231
 2094PW       W11216   5.695   1.051   3.391 -0.4543 -0.0214 -0.1263
 2094PW      WP11217   5.579   1.130   3.385 -0.0433  0.6466  0.1093
 2094PW      WM11218   5.612   1.085   3.498 -0.5774  0.1576 -0.2743
 2095PW       W11219   0.230   4.590   8.899  0.0454 -0.1709 -0.1565
 2095PW      WP11220   0.151   4.613   8.786 -0.1171 -0.8401 -0.1965
 2095PW      WM11221   0.315   4.519   8.814  0.1066 -0.2427 -0.0373
 2096PW       W11222   8.121   1.658   3.516 -0.2738  0.1879  0.0316
 2096PW      WP11223   8.211   1.759   3.550 -0.2559  0.3176 -0.3669
 2096PW      WM11224   8.216   1.683   3.417 -0.3027  0.3848  0.0502
 2097PW       W11225   0.337   3.881  10.453  0.0071  0.3314  0.6611
 2097PW      WP11226   0.329   3.919  10.319 -0.0751 -0.2166  0.4982
 2097PW      WM11227   0.379   3.748  10.469  0.0327  0.3528  0.7822
 2098PW       W11228   9.858  11.684   3.750 -0.0618 -0.1572  0.3266
 2098PW      WP11229   9.774  11.573   3.729  0.0403 -0.1297 -0.3509
 2098PW      WM11230   9.871  11.806   3.817  0.4517  0.1168 -0.2270
 2099PW       W11231   7.675   0.358  12.708  0.1850 -0.0354 -0.4818
 2099PW      WP11232   7.773   0.457  12.720 -0.3706  0.4828  0.2771
 2099PW      WM11233   7.536   0.346  12.722  0.2183 -0.0647 -0.1366
 2100PW       W11234  11.622   6.715  12.375 -0.0579  0.1937  0.0489
 2100PW      WP11235  11.577   6.848  12.370  0.2940  0.3247  0.1805
 2100PW      WM11236  11.751   6.764  12.352 -0.1397  0.4138  0.0423
 2101PW       W11237   6.359   7.945   0.746  0.0435  0.0498  0.1612
 2101PW      WP11238   6.294   7.844   0.818  0.0050  0.1133  0.2166
 2101PW      WM11239   6.280   7.989   0.640  0.0975  0.0377  0.1159
 2102PW       W11240  10.787   2.404   3.323  0.2541  0.0484  0.1905
 2102PW      WP11241  10.821   2.347   3.200  0.0087  0.2456  0.0265
 2102PW      WM11242  10.878   2.510   3.314 -0.2198  0.4427 -0.2918
 2103PW       W11243   5.922   0.801   4.131  0.4567 -0.0091 -0.3444
 2103PW      WP11244   5.822   0.818   4.035 -0.2026 -0.3161  0.2427
 2103PW      WM11245   5.948   0.857   4.257  0.5470 -0.0678 -0.3370
 2104PW       W11246   6.290   9.661   9.694 -0.0864  0.3199 -0.1154
 2104PW      WP11247   6.187   9.730   9.758 -0.2003  0.2387 -0.2110
 2104PW      WM11248   6.235   9.682   9.567  0.0202  0.1771 -0.1866
 2105PW       W11249   8.689  11.683   5.085  0.3528  0.2948 -0.0339
 2105PW      WP11250   8.608  11.796   5.072 -0.3221 -0.1554 -0.0431
 2105PW      WM11251   8.780  11.705   4.980  0.1939 -0.3131 -0.3239
 2106PW       W11252  11.736  11.512   4.448  0.0828  0.1919  0.2461
 2106PW      WP11253  11.874  11.486   4.439 -0.0481 -0.5001 -0.0299
 2106PW      WM11254  11.661  11.469   4.558 -0.0003 -0.5262 -0.0640
 2107PW       W11255   8.014   6.754   0.580  0.1832 -0.2250  0.0316
 2107PW      WP11256   8.028   6.813   0.705 -0.1716 -0.3985  0.1592
 2107PW      WM11257   7.950   6.650   0.648 -0.0974 -0.1553 -0.1154
 2108PW       W11258   1.912  10.599   4.161  0.5431 -0.0527  0.1253
 2108PW      WP11259   2.039  10.546   4.187  0.7053  0.1919 -0.1381
 2108PW      WM11260   1.861  10.704   4.238  0.2599 -0.1687  0.1044
 2109PW       W11261  11.936   2.240   9.371  0.1494 -0.1247 -0.0081
 2109PW      WP11262  11.945   2.326   9.261  0.5275 -0.0684  0.0608
 2109PW      WM11263  11.944   2.163   9.255  0.2311 -0.1397  0.0075
 2110PW       W11264  11.664   4.570   8.685 -0.3240  0.5672 -0.4677
 2110PW      WP11265  11.747   4.671   8.635  0.0506  0.2961 -0.4156
 2110PW      WM11266  11.703   4.491   8.576 -0.0247  0.2735 -0.1583
 2111PW       W11267   7.837   4.782   4.671 -0.1840  0.2644  0.0305
 2111PW      WP11268   7.724   4.704   4.700  0.1245 -0.1747  0.1065
 2111PW      WM11269   7.877   4.821   4.543 -0.1597  0.1042 -0.0112
 2112PW       W11270   7.742   2.680  10.777 -0.5343  0.0799 -0.0273
 2112PW      WP11271   7.711   2.544  10.790 -0.2241  0.0053 -0.0299
 2112PW      WM11272   7.789   2.715  10.650  0.1783  0.2902  0.2693
 2113PW       W11273   4.618  10.308  13.110  0.0306  0.1716 -0.3066
 2113PW      WP11274   4.727  10.327  13.024  0.4587 -0.3954  0.0763
 2113PW      WM11275   4.628  10.329  13.248 -0.1200  0.1845 -0.2962
 2114PW       W11276   7.700   5.153  10.580  0.2850  0.2686 -0.1081
 2114PW      WP11277   7.636   5.073  10.485  0.1469  0.2653 -0.0137
 2114PW      WM11278   7.669   5.195  10.710  0.0073  0.0784 -0.1108
 2115PW       W11279   9.030  10.585  11.525  0.0754  0.2388  0.3691
 2115PW      WP11280   9.112  10.697  11.506 -0.1780  0.3434 -0.2364
 2115PW      WM11281   8.953  10.605  11.640  0.0650  0.2038  0.3681
 2116PW       W11282   5.811   2.699   9.984 -0.1413 -0.0675  0.1192
 2116PW      WP11283   5.946   2.665   9.991 -0.2257 -0.3685  0.3879
 2116PW      WM11284   5.852   2.580  10.045 -0.2428 -0.2464 -0.1527
 2117PW       W11285   5.798   2.732   2.869  0.1967 -0.0750 -0.0574
 2117PW      WP11286   5.696   2.777   2.954 -0.2202 -0.3073 -0.4156
 2117PW      WM11287   5.836   2.628   2.955  0.3288 -0.1892 -0.2506
 2118PW       W11288   0.829   7.282   9.340  0.1218  0.0718  0.0423
 2118PW      WP11289   0.870   7.198   9.445  0.6286 -0.3010 -0.4274
 2118PW      WM11290   0.927   7.217   9.265 -0.1733  0.0038 -0.2956
 2119PW       W11291   2.706   9.413   1.375 -0.4583  0.3992 -0.1459
 2119PW      WP11292   2.799   9.515   1.350  0.2788 -0.2088 -0.1002
 2119PW      WM11293   2.596   9.400   1.460 -0.7622 -0.1574 -0.5889
 2120PW       W11294   7.154   7.298   1.491  0.0496 -0.3214 -0.1200
 2120PW      WP11295   7.109   7.412   1.423 -0.3555  0.0038  0.6334
 2120PW      WM11296   7.098   7.224   1.385  0.1346 -0.0465 -0.3636
 2121PW       W11297   7.740   8.032   3.309  0.2059  0.1127  0.0038
 2121PW      WP11298   7.811   8.138   3.251  0.1941  0.2132  0.1692
 2121PW      WM11299   7.838   7.951   3.368  0.1529  0.1246  0.1093
 2122PW       W11300  11.830  10.119   2.580  0.0786  0.4086 -0.0873
 2122PW      WP11301  11.928  10.081   2.487  0.1977 -0.2879  0.2934
 2122PW      WM11302  11.965  10.125   2.618 -0.0035  0.3873  0.2171
 2123PW       W11303   3.363   7.571  11.353 -0.2443  0.1028 -0.2340
 2123PW      WP11304   3.382   7.439  11.396 -0.2321  0.2113  0.1084
 2123PW      WM11305   3.241   7.568  11.422  0.0961 -0.0136  0.4013
 2124PW       W11306   3.976   7.103  10.853  0.3267 -0.0916  0.1278
 2124PW      WP11307   3.976   6.998  10.761 -0.3204 -0.0612  0.0659
 2124PW      WM11308   4.106   7.125  10.898 -0.0228  0.8080  0.8724
 2125PW       W11309   1.847   4.935   2.819  0.1985 -0.0269 -0.2070
 2125PW      WP11310   1.897   5.054   2.766 -0.1511  0.1117 -0.2382
 2125PW      WM11311   1.982   4.901   2.834  0.2866  0.3081 -0.2060
 2126PW       W11312   5.352  10.370   9.689 -0.2962  0.1722 -0.4052
 2126PW      WP11313   5.371  10.454   9.579  0.5481  0.4858 -0.0627
 2126PW      WM11314   5.283  10.287   9.778  0.4219 -0.4950 -0.4112
 2127PW       W11315   9.844   9.569   9.770 -0.2971  0.5138 -0.4407
 2127PW      WP11316   9.754   9.477   9.712 -0.5224  0.1014  0.4674
 2127PW      WM11317   9.962   9.641   9.753  0.4524 -0.4631  0.0882
 2128PW       W11318   7.252   5.607   4.783  0.1668  0.0355 -0.0810
 2128PW      WP11319   7.266   5.524   4.895  0.0434  0.5125  0.3057
 2128PW      WM11320   7.164   5.648   4.682  0.0107  0.0393  0.0541
 2129PW       W11321  11.857   4.066  13.103 -0.0190  0.0802 -0.1613
 2129PW      WP11322  11.964   3.981  13.133 -0.3966 -0.6734 -0.7465
 2129PW      WM11323  11.854   3.947  13.029 -0.1341  0.0149 -0.0563
 2130PW       W11324   7.987   8.246   5.398  0.0524 -0.1163  0.1720
 2130PW      WP11325   8.032   8.374   5.431 -0.0305  0.0693 -0.3820
 2130PW      WM11326   8.098   8.263   5.482  0.4508 -0.1513 -0.3274
 2131PW       W11327   1.817   6.382   5.029  0.3981 -0.0181  0.1513
 2131PW      WP11328   1.786   6.481   5.122  0.4604  0.4767 -0.3304
 2131PW      WM11329   1.869   6.488   4.954 -0.1513 -0.0483 -0.3127
 2132PW       W11330   0.068   9.921   0.537  0.0120 -0.1756  0.0241
 2132PW      WP11331   0.144   9.884   0.648 -0.1522  0.2503  0.2912
 2132PW      WM11332   0.029   9.787   0.545  0.5414 -0.3352  0.1167
 2133PW       W11333   3.201   6.184   5.462 -0.1121  0.2655 -0.3146
 2133PW      WP11334   3.307   6.099   5.495 -0.1783  0.3426  0.1320
 2133PW      WM11335   3.235   6.152   5.330 -0.0319 -0.1788 -0.1938
 2134PW       W11336   7.810   9.557   4.698  0.1486  0.0006  0.1191
 2134PW      WP11337   7.791   9.460   4.797 -0.1175  0.0079  0.0785
 2134PW      WM11338   7.782   9.655   4.602  0.1464 -0.1034  0.0136
 2135PW       W11339   0.964   2.030   0.157 -0.2926 -0.0885  0.3742
 2135PW      WP11340   1.104   2.028   0.169 -0.2750  0.0315  0.2125
 2135PW      WM11341   0.903   2.135   0.088 -0.3517 -0.3442  0.0243
 2136PW       W11342   6.220   9.583   8.748  0.1401 -0.1956  0.3033
 2136PW      WP11343   6.281   9.708   8.762  0.5543 -0.3341 -0.1277
 2136PW      WM11344   6.240   9.506   8.632 -0.1042 -0.0953  0.1913
 2137PW       W11345   9.173  11.584  12.851  0.0800 -0.1155  0.1850
 2137PW      WP11346   9.204  11.570  12.715  0.5617 -0.2646  0.2996
 2137PW      WM11347   9.259  11.493  12.913  0.2805  0.0413  0.1432
 2138PW       W11348   3.858   1.730   0.263  0.3066  0.1698  0.2596
 2138PW      WP11349   3.752   1.820   0.276  0.1082 -0.0082 -0.0517
 2138PW      WM11350   3.917   1.799   0.369  0.0332  0.2530  0.3620
 2139PW       W11351   6.661   9.595   8.495 -0.4311  0.1769  0.1465
 2139PW      WP11352   6.744   9.707   8.487 -0.3144  0.0711 -0.1988
 2139PW      WM11353   6.752   9.526   8.576 -0.1597  0.2475 -0.0924
 2140PW       W11354   5.251   3.614  13.268 -0.1930 -0.0025  0.0137
 2140PW      WP11355   5.249   3.489  13.332  0.3397 -0.4506 -0.7541
 2140PW      WM11356   5.352   3.704  13.234  0.1170 -0.3879 -0.1297
 2141PW       W11357   2.314   6.321  10.637  0.2486  0.0134  0.2675
 2141PW      WP11358   2.337   6.456  10.665  0.2299  0.0702  0.0178
 2141PW      WM11359   2.451   6.350  10.641  0.3370 -0.1007 -0.7447
 2142PW       W11360   6.009  12.014   0.738 -0.2693  0.0678 -0.3432
 2142PW      WP11361   5.935  11.912   0.797 -0.0347  0.2684  0.3546
 2142PW      WM11362   6.069  12.137   0.769 -0.0280 -0.1745  0.2284
 2143PW       W11363   8.283   4.948   2.677 -0.4995  0.1984 -0.1245
 2143PW      WP11364   8.169   4.923   2.601 -0.6083  0.6154 -0.1121
 2143PW      WM11365   8.323   5.083   2.676 -0.0909  0.1003 -0.9445
 2144PW       W11366   9.704   5.673  11.270 -0.2250 -0.2056  0.0823
 2144PW      WP11367   9.740   5.561  11.195 -0.5414 -0.0117 -0.3774
 2144PW      WM11368   9.776   5.793  11.264  0.2185 -0.4716 -0.3137
 2145PW       W11369   9.190   1.868  12.298  0.1027 -0.1947 -0.2792
 2145PW      WP11370   9.201   2.006  12.316  0.4690 -0.2204 -0.2711
 2145PW      WM11371   9.253   1.897  12.419  0.2824 -0.2663 -0.3531
 2146PW       W11372   1.600   9.358  11.633 -0.1554  0.2550 -0.2063
 2146PW      WP11373   1.688   9.284  11.553 -0.2486 -0.2538  0.1360
 2146PW      WM11374   1.584   9.280  11.748  0.2117  0.2634 -0.1430
 2147PW       W11375  10.950  10.776  10.851 -0.2188 -0.2731 -0.0319
 2147PW      WP11376  11.012  10.679  10.773  0.0618  0.1267 -0.3278
 2147PW      WM11377  10.943  10.900  10.916 -0.3449 -0.3639  0.1323
 2148PW       W11378  11.561   8.857  11.186 -0.1981 -0.2733  0.1091
 2148PW      WP11379  11.565   8.762  11.288 -0.1353 -0.0622  0.3061
 2148PW      WM11380  11.560   8.775  11.072 -0.1210 -0.2990  0.1266
 2149PW       W11381   9.549   4.990   4.359  0.1628  0.4063 -0.1896
 2149PW      WP11382   9.688   4.984   4.346  0.1686 -0.1037  0.0067
 2149PW      WM11383   9.521   4.898   4.257  0.0878  0.0921  0.1050
 2150PW       W11384   2.818   4.221   0.139  0.2929  0.0743  0.3137
 2150PW      WP11385   2.710   4.284   0.201 -0.1779 -0.1210 -0.2556
 2150PW      WM11386   2.742   4.128   0.212  0.3110 -0.0189  0.2155
 2151PW       W11387  10.188  11.874  10.843 -0.0608  0.0927 -0.2004
 2151PW      WP11388  10.284  11.898  10.744  0.9024  0.2827  0.6922
 2151PW      WM11389  10.248  11.961  10.936 -0.0701  0.3734 -0.4504
 2152PW       W11390  12.162   9.302   2.824  0.0236 -0.5891 -0.3941
 2152PW      WP11391  12.022   9.292   2.828 -0.0173 -0.0563 -0.1184
 2152PW      WM11392  12.226   9.193   2.886 -0.1441 -0.3229  0.2881
 2153PW       W11393   7.366   1.132   4.087 -0.2693 -0.3861 -0.3313
 2153PW      WP11394   7.297   1.146   3.966 -0.4742 -0.2359 -0.2004
 2153PW      WM11395   7.281   1.106   4.195  0.4320 -0.8133  0.1587
 2154PW       W11396   1.742   9.630   1.600  0.2604  0.0289 -0.3320
 2154PW      WP11397   1.824   9.558   1.688 -0.4331 -0.1037  0.2502
 2154PW      WM11398   1.609   9.586   1.597  0.0463  0.6259 -0.1681
 2155PW       W11399  11.510   5.181  10.782  0.1615 -0.0440 -0.0802
 2155PW      WP11400  11.449   5.058  10.754 -0.0020 -0.1018  0.4684
 2155PW      WM11401  11.615   5.271  10.803 -0.0221  0.2257 -0.2805
 2156PW       W11402   9.593   8.441   3.033 -0.1211  0.0233  0.1403
 2156PW      WP11403   9.506   8.341   2.986 -0.1088 -0.1420  0.4561
 2156PW      WM11404   9.661   8.324   3.068 -0.0172 -0.0488 -0.2784
 2157PW       W11405   9.627  11.739   4.305 -0.0772  0.2102  0.4612
 2157PW      WP11406   9.593  11.808   4.188 -0.1159  0.2611  0.5023
 2157PW      WM11407   9.499  11.684   4.289  0.1101 -0.2024  0.2935
 2158PW       W11408   9.901   6.951   8.852  0.0762 -0.0641 -0.4293
 2158PW      WP11409   9.855   7.068   8.913 -0.0409 -0.1954 -0.2582
 2158PW      WM11410   9.936   6.823   8.896  0.2235 -0.0798 -0.5886
 2159PW       W11411  11.402   9.475   9.276 -0.4733 -0.3288  0.4815
 2159PW      WP11412  11.503   9.427   9.361  0.1625 -0.2153 -0.1660
 2159PW      WM11413  11.417   9.558   9.165 -0.3982 -0.1014  0.6573
 2160PW       W11414   6.125   5.519  12.988  0.0745 -0.1768  0.3817
 2160PW      WP11415   6.239   5.564  12.921  0.1607 -0.5432  0.2729
 2160PW      WM11416   6.181   5.392  13.004 -0.0536 -0.2452  0.2951
 2161PW       W11417   1.431   1.666   8.599  0.1985  0.0377  0.1469
 2161PW      WP11418   1.542   1.719   8.531 -0.2005 -0.0449 -0.6227
 2161PW      WM11419   1.311   1.601   8.571  0.1965  0.2083 -0.2854
 2162PW       W11420  11.045  11.155   9.801 -0.4140 -0.5199  0.6102
 2162PW      WP11421  10.993  11.070   9.703 -0.0711 -0.1667  0.0893
 2162PW      WM11422  11.095  11.152   9.932  0.2336  0.0917  0.4152
 2163PW       W11423  10.655   0.204   4.371  0.3815 -0.4857 -0.3978
 2163PW      WP11424  10.589   0.094   4.316  0.2354 -0.5780 -0.0532
 2163PW      WM11425  10.670   0.152   4.500  0.3430 -0.1930 -0.2726
 2164PW       W11426   8.417   1.285  11.344  0.0680 -0.0000  0.4053
 2164PW      WP11427   8.352   1.408  11.354 -0.0948 -0.0461  0.0029
 2164PW      WM11428   8.335   1.209  11.260 -0.0282  0.4447  0.0842
 2165PW       W11429   5.901  11.900   5.588  0.1256  0.1253 -0.1504
 2165PW      WP11430   5.855  11.800   5.501 -0.5127 -0.0879  0.3954
 2165PW      WM11431   6.015  11.979   5.568  0.3174 -0.1401 -0.1402
 2166PW       W11432   7.594  11.412   0.787 -0.0361  0.1761 -0.0950
 2166PW      WP11433   7.455  11.402   0.798 -0.0712  0.4620 -0.2263
 2166PW      WM11434   7.640  11.307   0.867 -0.5694 -0.1273 -0.1616
 2167PW       W11435   8.061   4.755   9.132 -0.0845 -0.1665  0.0240
 2167PW      WP11436   8.032   4.620   9.152  0.1833 -0.2208  0.0655
 2167PW      WM11437   8.183   4.789   9.073  0.0117 -0.6279 -0.0580
 2168PW       W11438   7.182   3.675   0.365  0.3640  0.1277  0.0485
 2168PW      WP11439   7.208   3.720   0.235  0.6515 -0.2498 -0.0319
 2168PW      WM11440   7.086   3.682   0.467  0.2379  0.3565 -0.0809
 2169PW       W11441   6.389   6.810  12.449  0.7021 -0.2998 -0.3676
 2169PW      WP11442   6.316   6.701  12.401 -0.5586  0.3345 -0.0991
 2169PW      WM11443   6.448   6.833  12.575  0.0488 -0.1484 -0.0668
 2170PW       W11444   8.756   9.012  11.292  0.0348  0.2092 -0.2897
 2170PW      WP11445   8.741   9.081  11.413 -0.2614 -0.0873 -0.1505
 2170PW      WM11446   8.896   9.015  11.306  0.0063  0.5440  0.0186
 2171PW       W11447   8.662   5.540   5.458  0.1212 -0.1665 -0.1355
 2171PW      WP11448   8.659   5.407   5.502  0.4785  0.0973  0.7993
 2171PW      WM11449   8.553   5.523   5.371  0.0584  0.1560 -0.1259
 2172PW       W11450   7.244   3.554   8.299  0.3379 -0.2747 -0.3093
 2172PW      WP11451   7.172   3.476   8.208 -0.2611  0.3635 -0.4272
 2172PW      WM11452   7.234   3.693   8.314 -0.4972 -0.3872  0.8693
 2173PW       W11453   0.445   0.956   0.318  0.0085 -0.1053 -0.3565
 2173PW      WP11454   0.413   1.043   0.214 -0.0448 -0.4530 -0.6391
 2173PW      WM11455   0.381   0.926   0.439  0.0061  0.2817 -0.2538
 2174PW       W11456   7.120   8.485  11.741  0.2809 -0.1475 -0.6649
 2174PW      WP11457   7.232   8.482  11.826  0.1197  0.2171 -0.4263
 2174PW      WM11458   7.032   8.590  11.769  0.2155 -0.3197 -0.1892
 2175PW       W11459   3.419   5.865   0.413 -0.0910  0.1699  0.5370
 2175PW      WP11460   3.485   5.863   0.537  0.3861 -0.1444  0.2916
 2175PW      WM11461   3.367   5.992   0.383 -0.1006  0.1930  0.6485
 2176PW       W11462   5.249   7.578   9.621 -0.1441  0.1362 -0.0226
 2176PW      WP11463   5.310   7.591   9.746 -0.2405 -0.3002  0.0790
 2176PW      WM11464   5.227   7.459   9.549 -0.3401  0.0148  0.2291
 2177PW       W11465   8.829   9.535   4.146  0.1106  0.0757 -0.1222
 2177PW      WP11466   8.810   9.674   4.143 -0.0318  0.0627  0.0417
 2177PW      WM11467   8.866   9.646   4.070 -0.1098  0.3822  0.2028
 2178PW       W11468  11.432   3.794   4.374  0.4065 -0.0088  0.1252
 2178PW      WP11469  11.403   3.804   4.237 -0.3606 -0.3999  0.2364
 2178PW      WM11470  11.539   3.783   4.283  0.1888  0.0540 -0.1467
 2179PW       W11471   5.191   0.378  10.752 -0.0094 -0.3629  0.0663
 2179PW      WP11472   5.174   0.458  10.866 -0.4897 -0.4383  0.0579
 2179PW      WM11473   5.097   0.279  10.724 -0.3393 -0.0447  0.0149
 2180PW       W11474   6.979   2.988  11.684 -0.0306 -0.1191 -0.0042
 2180PW      WP11475   6.876   3.045  11.608 -0.0420 -0.2213 -0.0663
 2180PW      WM11476   7.034   3.114  11.660  0.0069 -0.0577  0.3623
 2181PW       W11477  12.154   1.643   1.318 -0.3094 -0.0110  0.0289
 2181PW      WP11478  12.136   1.781   1.299 -0.3384 -0.0092  0.0666
 2181PW      WM11479  12.086   1.533   1.265 -0.0962 -0.4580  0.6305
 2182PW       W11480   3.022   6.600   2.071  0.0493 -0.5261 -0.0684
 2182PW      WP11481   2.985   6.508   2.169 -0.2299 -0.2031  0.1439
 2182PW      WM11482   3.120   6.669   2.144 -0.2043 -0.5702  0.3266
 2183PW       W11483   5.135   8.793   4.169 -0.0709  0.3038  0.0097
 2183PW      WP11484   5.201   8.683   4.115  0.0520  0.0315  0.6632
 2183PW      WM11485   5.021   8.767   4.246  0.0087  0.2560  0.1124
 2184PW       W11486  10.264   4.411   0.925  0.1529  0.0611  0.5009
 2184PW      WP11487  10.276   4.272   0.941 -0.1070 -0.0866 -0.3595
 2184PW      WM11488  10.128   4.445   0.920 -0.0097 -0.5548 -0.0598
 2185PW       W11489   9.654   6.070  11.572 -0.0646  0.1458  0.2374
 2185PW      WP11490   9.648   6.076  11.432  0.6536  0.6048  0.1976
 2185PW      WM11491   9.725   6.087  11.691  0.2129  0.1033  0.0833
 2186PW       W11492  11.600   4.665   9.548  0.0021  0.0491  0.0921
 2186PW      WP11493  11.729   4.634   9.504 -0.0630  0.0765 -0.1251
 2186PW      WM11494  11.706   4.745   9.593 -0.1232  0.5320 -0.4159
 2187PW       W11495   2.648   5.168   3.275 -0.2540  0.1721  0.3447
 2187PW      WP11496   2.593   5.179   3.147 -0.1960 -0.5499  0.2388
 2187PW      WM11497   2.605   5.252   3.379 -0.2217  0.1302  0.3920
 2188PW       W11498  10.333   5.935   2.270  0.2743 -0.3494  0.0306
 2188PW      WP11499  10.285   6.003   2.382 -0.1874 -0.0260 -0.3424
 2188PW      WM11500  10.225   5.917   2.182 -0.0114  0.0816  0.2707
 2189PW       W11501  11.724   3.492  11.158  0.1285 -0.0626 -0.3291
 2189PW      WP11502  11.604   3.423  11.177  0.3528 -0.4177 -0.1513
 2189PW      WM11503  11.811   3.428  11.068  0.1428  0.1776 -0.4922
 2190PW       W11504   6.150   4.636  11.389  0.0165  0.7259 -0.2477
 2190PW      WP11505   6.268   4.687  11.332  0.2741 -0.0574 -0.4793
 2190PW      WM11506   6.264   4.635  11.470  0.2141  0.0194 -0.4924
 2191PW       W11507  10.628   6.212   4.311  0.1892 -0.0518  0.3609
 2191PW      WP11508  10.738   6.184   4.229 -0.0013  0.5069 -0.1232
 2191PW      WM11509  10.544   6.107   4.271 -0.3466  0.2485  0.6410
 2192PW       W11510   5.329  11.206  10.458 -0.4248 -0.3990 -0.0508
 2192PW      WP11511   5.367  11.094  10.533 -0.2463  0.1862  0.8175
 2192PW      WM11512   5.311  11.163  10.326 -0.2480 -0.1070 -0.1744
 2193PW       W11513   6.844  11.676  10.572  0.6101  0.3820 -0.0773
 2193PW      WP11514   6.798  11.551  10.616  0.0194  0.4173 -0.5294
 2193PW      WM11515   6.949  11.666  10.480  0.5086 -0.0322 -0.1612
 2194PW       W11516   7.150   9.947  13.259  0.1622 -0.2336 -0.0654
 2194PW      WP11517   7.025   9.934  13.322  0.0812  0.1791 -0.1263
 2194PW      WM11518   7.284   9.922  13.289  0.1414  0.0106  0.2592
 2195PW       W11519   1.052   9.777   0.837  0.1319  0.2956  0.1001
 2195PW      WP11520   0.931   9.770   0.909  0.1960 -0.1413  0.1794
 2195PW      WM11521   1.169   9.719   0.887  0.2680  0.5221  0.0501
 2196PW       W11522   1.678   4.593   1.939 -0.1422  0.1482 -0.2608
 2196PW      WP11523   1.647   4.547   1.811 -0.2791 -0.1705 -0.1176
 2196PW      WM11524   1.574   4.680   1.972  0.1270  0.2927  0.2666
 2197PW       W11525  11.105   8.528   2.994  0.0997 -0.1897 -0.4005
 2197PW      WP11526  11.012   8.541   2.890 -0.4455  0.2894  0.1147
 2197PW      WM11527  11.065   8.428   3.084  0.2530 -0.0466 -0.1687
 2198PW       W11528   9.588   6.857   2.315  0.0235 -0.1289  0.6171
 2198PW      WP11529   9.499   6.755   2.350 -0.3175  0.0385  0.2747
 2198PW      WM11530   9.672   6.762   2.375  0.2562 -0.1890  0.2152
 2199PW       W11531   4.660   4.703   9.360 -0.5792 -0.0315 -0.1745
 2199PW      WP11532   4.792   4.671   9.329 -0.4191  0.2794  0.1527
 2199PW      WM11533   4.623   4.575   9.405 -0.1755 -0.0667  0.0812
 2200PW       W11534   2.950   1.986  13.196 -0.4398 -0.0795  0.2356
 2200PW      WP11535   2.895   1.896  13.104  0.2238 -0.4679  0.1940
 2200PW      WM11536   2.987   1.878  13.276 -0.0792 -0.4433 -0.3859
 2201PW       W11537   5.669   0.143   1.786  0.0433  0.3632 -0.0417
 2201PW      WP11538   5.532   0.117   1.774  0.1109  0.1539 -0.4083
 2201PW      WM11539   5.678   0.169   1.924 -0.0774 -0.1368  0.0707
 2202PW       W11540   5.300   8.041   3.402  0.1073  0.1631 -0.0956
 2202PW      WP11541   5.331   7.948   3.502  0.1199  0.2880  0.0175
 2202PW      WM11542   5.312   8.157   3.479  0.4616  0.2555 -0.2796
 2203PW       W11543   6.776   8.664   8.793 -0.3118  0.5021  0.1071
 2203PW      WP11544   6.650   8.699   8.744 -0.3727  0.0043 -0.1220
 2203PW      WM11545   6.855   8.719   8.691 -0.5837  0.1891 -0.2884
 2204PW       W11546   5.482   6.971   0.707  0.4280 -0.2218 -0.1815
 2204PW      WP11547   5.471   7.068   0.606 -0.2215 -0.1380 -0.0517
 2204PW      WM11548   5.438   6.872   0.619 -0.1725 -0.1780  0.0482
 2205PW       W11549   9.385   4.163   2.482  0.1400 -0.0650  0.0490
 2205PW      WP11550   9.392   4.125   2.348 -0.0854 -0.6123  0.1801
 2205PW      WM11551   9.436   4.038   2.520 -0.1386 -0.1340  0.2071
 2206PW       W11552   3.596   1.850   8.531  0.2163 -0.0502  0.4815
 2206PW      WP11553   3.667   1.805   8.643  0.1281  0.0536  0.5793
 2206PW      WM11554   3.547   1.945   8.621  0.3042  0.5972 -0.1107
 2207PW       W11555   5.106   4.933   1.886  0.1980 -0.1061 -0.0222
 2207PW      WP11556   5.174   4.938   1.764 -0.1803  0.0177 -0.2389
 2207PW      WM11557   5.023   4.830   1.839  0.0342 -0.0696  0.1777
 2208PW       W11558   2.664   3.309   4.575 -0.2056  0.2124  0.3079
 2208PW      WP11559   2.634   3.240   4.692  0.2278 -0.3950  0.0841
 2208PW      WM11560   2.531   3.293   4.534 -0.0828 -0.1676  0.0348
 2209PW       W11561   2.011   3.892   3.575  0.0396 -0.3135  0.2929
 2209PW      WP11562   2.131   3.825   3.546  0.0094 -0.2510  0.0060
 2209PW      WM11563   1.984   3.967   3.460 -0.0561 -0.0068  0.5107
 2210PW       W11564   2.263   4.464   8.941 -0.2849 -0.2328  0.1243
 2210PW      WP11565   2.403   4.467   8.946 -0.2590 -0.1620 -0.3819
 2210PW      WM11566   2.289   4.499   9.075 -0.1715  0.2537 -0.0156
 2211PW       W11567   9.403   0.427   9.823 -0.1729  0.0877  0.3612
 2211PW      WP11568   9.477   0.507   9.735  0.0401 -0.1438  0.3225
 2211PW      WM11569   9.450   0.493   9.938 -0.3125  0.1563  0.3799
 2212PW       W11570   5.659  11.590   0.082  0.4356  0.1316  0.0511
 2212PW      WP11571   5.659  11.637   0.213 -0.1625  0.0987  0.0758
 2212PW      WM11572   5.731  11.479   0.036 -0.0203 -0.1651  0.0233
 2213PW       W11573  11.254  10.008   2.667  0.1667  0.0590  0.0953
 2213PW      WP11574  11.325   9.959   2.557  0.1890  0.0476  0.1146
 2213PW      WM11575  11.235  10.110   2.574  0.1674 -0.1145 -0.0976
 2214PW       W11576   0.077   0.615   3.910 -0.0715  0.3057 -0.0446
 2214PW      WP11577   0.151   0.696   3.824  0.6462 -0.3185 -0.0673
 2214PW      WM11578   0.189   0.667   3.978  0.0906 -0.0921  0.0069
 2215PW       W11579   4.409   4.002  10.134 -0.2139  0.0149  0.2456
 2215PW      WP11580   4.508   3.903  10.136  0.1401  0.3525  0.2189
 2215PW      WM11581   4.379   4.100  10.229  0.1512  0.3020  0.0774
 2216PW       W11582   0.437  11.046   4.682 -0.1034 -0.6019  0.0987
 2216PW      WP11583   0.386  11.033   4.812  0.0262  0.3011  0.2686
 2216PW      WM11584   0.568  11.089   4.702 -0.1789 -0.4381  0.2532
 2217PW       W11585   8.233   2.829   0.350 -0.2341  0.1662 -0.2102
 2217PW      WP11586   8.183   2.718   0.282  0.0380 -0.2464  0.2317
 2217PW      WM11587   8.107   2.871   0.306 -0.3900  0.0519  0.1091
 2218PW       W11588   6.980   1.518   4.922 -0.2505 -0.5777  0.1705
 2218PW      WP11589   6.843   1.511   4.946 -0.4011 -0.0495 -0.4038
 2218PW      WM11590   7.098   1.464   4.976  0.3517  0.3235 -0.1193
 2219PW       W11591  10.272   7.828   1.606 -0.3173 -0.4539  0.3931
 2219PW      WP11592  10.144   7.786   1.568 -0.0755 -0.5948 -0.3477
 2219PW      WM11593  10.211   7.918   1.518  0.3223  0.3029  0.6599
 2220PW       W11594   6.768   1.035   0.293 -0.4699  0.2262  0.3783
 2220PW      WP11595   6.680   0.950   0.361 -0.1296 -0.4551  0.0220
 2220PW      WM11596   6.750   0.986   0.423  0.0543  0.0129  0.3821
 2221PW       W11597   2.003   3.900   1.828  0.0107 -0.4839 -0.1660
 2221PW      WP11598   2.139   3.917   1.853  0.0906  0.0505 -0.8190
 2221PW      WM11599   1.921   3.888   1.715  0.2322 -0.1783 -0.3667
 2222PW       W11600   6.535  10.019   2.867  0.2773  0.1041  0.0935
 2222PW      WP11601   6.497  10.151   2.890  0.3954  0.1448  0.0610
 2222PW      WM11602   6.510  10.032   2.730  0.4607  0.1276  0.0614
 2223PW       W11603  12.057   7.474   8.653 -0.0832  0.3530  0.5145
 2223PW      WP11604  11.970   7.532   8.560  0.1313  0.0503  0.1080
 2223PW      WM11605  11.993   7.350   8.637  0.2363  0.2719 -0.3995
 2224PW       W11606   7.939   5.690   3.006  0.0007  0.3779 -0.2676
 2224PW      WP11607   8.047   5.773   2.973 -0.1431  0.5167 -0.3925
 2224PW      WM11608   7.841   5.773   3.062 -0.4236 -0.0155 -0.3934
 2225PW       W11609   5.194   0.773   8.633  0.1888  0.1823  0.2629
 2225PW      WP11610   5.199   0.636   8.661  0.1698  0.2645  0.7011
 2225PW      WM11611   5.079   0.781   8.552  0.4019  0.2347 -0.0429
 2226PW       W11612   6.952   4.940   8.247  0.3080  0.1224  0.2700
 2226PW      WP11613   6.882   4.908   8.364  0.0135 -0.1248  0.0324
 2226PW      WM11614   6.984   5.002   8.369  0.0918  0.0255  0.3786
 2227PW       W11615   0.856   2.264   0.815 -0.3857 -0.1963  0.0579
 2227PW      WP11616   0.758   2.258   0.915 -0.3577  0.1000  0.1077
 2227PW      WM11617   0.898   2.132   0.801  0.0992 -0.0036 -0.4848
 2228PW       W11618   6.473   1.505  10.995  0.0382 -0.0800  0.1460
 2228PW      WP11619   6.338   1.470  11.010  0.0142  0.0573  0.2647
 2228PW      WM11620   6.492   1.642  10.975 -0.4689 -0.0092  0.0844
 2229PW       W11621   3.445   8.111   2.970 -0.2016 -0.5108 -0.0111
 2229PW      WP11622   3.305   8.112   2.977 -0.2084 -0.0766 -0.0589
 2229PW      WM11623   3.473   8.235   2.912  0.3730 -0.6233 -0.0026
 2230PW       W11624   0.941   3.119  12.313 -0.5310  0.1089 -0.0154
 2230PW      WP11625   1.045   3.115  12.220 -0.2542 -0.1133  0.2909
 2230PW      WM11626   0.992   3.169  12.434  0.2035 -0.7234  0.0667
 2231PW       W11627   3.992   8.383  11.468  0.4999 -0.0277 -0.1778
 2231PW      WP11628   3.963   8.262  11.404 -0.1571 -0.0454  0.1189
 2231PW      WM11629   3.996   8.247  11.503 -0.3479 -0.0868 -0.2132
 2232PW       W11630   9.826   4.621   0.302  0.4115  0.1467  0.2150
 2232PW      WP11631   9.860   4.488   0.331 -0.0051  0.0871  0.4759
 2232PW      WM11632   9.711   4.679   0.249  0.2241 -0.5602 -0.2257
 2233PW       W11633   5.533   5.804   2.968 -0.5077  0.0043 -0.0950
 2233PW      WP11634   5.519   5.923   3.042  0.0391 -0.0265  0.0788
 2233PW      WM11635   5.462   5.925   2.975  0.3112  0.5237 -0.0150
 2234PW       W11636   8.140   9.073   1.966 -0.5744  0.3329  0.0066
 2234PW      WP11637   8.063   9.066   2.083  0.0291  0.2106  0.4193
 2234PW      WM11638   8.079   8.949   1.946 -0.1237  0.1035  0.0164
 2235PW       W11639  10.703   9.456   3.304 -0.2392  0.0817  0.4748
 2235PW      WP11640  10.767   9.353   3.374 -0.1186 -0.3457 -0.2162
 2235PW      WM11641  10.678   9.543   3.197  0.0352  0.0726  0.3980
 2236PW       W11642   1.781   1.166   1.246 -0.0748 -0.2028  0.1726
 2236PW      WP11643   1.740   1.213   1.120  0.2015 -0.2008  0.0801
 2236PW      WM11644   1.902   1.118   1.194  0.0615  0.5031 -0.2315
 2237PW       W11645   2.850   6.101  10.827  0.1671  0.1671 -0.3909
 2237PW      WP11646   2.852   6.227  10.887 -0.5437  0.1248 -0.2352
 2237PW      WM11647   2.980   6.055  10.806  0.3939  0.4788  0.2210
 2238PW       W11648   8.622   5.121   8.386 -0.3937  0.3291  0.0720
 2238PW      WP11649   8.680   5.110   8.513 -0.2532  0.0494 -0.0121
 2238PW      WM11650   8.548   5.058   8.488 -0.4324 -0.5978 -0.4708
 2239PW       W11651   0.870   8.753   0.993 -0.1295 -0.0069  0.3756
 2239PW      WP11652   0.761   8.839   0.980  0.3421  0.6187  0.2996
 2239PW      WM11653   0.786   8.657   1.051  0.2292 -0.4425  0.2082
 2240PW       W11654   8.067   7.166   9.365  0.0750  0.2096 -0.3522
 2240PW      WP11655   8.039   7.278   9.444 -0.0346  0.0491 -0.1592
 2240PW      WM11656   8.140   7.046   9.360  0.0058  0.1546 -0.1209
 2241PW       W11657   1.989   0.706   1.036  0.0860 -0.1675 -0.1644
 2241PW      WP11658   2.047   0.800   1.122 -0.2875  0.2012 -0.2975
 2241PW      WM11659   2.081   0.618   1.093  0.2779 -0.0440 -0.2795
 2242PW       W11660   6.114   5.462   2.195  0.1809  0.2313 -0.1882
 2242PW      WP11661   6.029   5.448   2.084 -0.0247 -0.1047  0.0073
 2242PW      WM11662   6.235   5.441   2.262  0.1466 -0.1657 -0.2438
 2243PW       W11663   6.607   0.470   2.968  0.1730 -0.0425 -0.0583
 2243PW      WP11664   6.665   0.439   2.844  0.4256  0.5455 -0.1020
 2243PW      WM11665   6.481   0.414   2.943  0.0924  0.1028  0.0179
 2244PW       W11666  10.198   4.811   2.285 -0.2103  0.1103 -0.6410
 2244PW      WP11667  10.124   4.825   2.404  0.6436  0.2168 -0.0757
 2244PW      WM11668  10.293   4.847   2.381 -0.4936  0.0776 -0.3388
 2245PW       W11669   5.423  11.388   3.667  0.0698  0.0262  0.2772
 2245PW      WP11670   5.348  11.270   3.659  0.2855 -0.0935 -0.1177
 2245PW      WM11671   5.418  11.419   3.803  0.1288  0.2876  0.2235
 2246PW       W11672   9.987  10.565   9.589 -0.0485  0.1293  0.3531
 2246PW      WP11673  10.105  10.624   9.542 -0.0292  0.2234  0.5143
 2246PW      WM11674  10.000  10.530   9.724 -0.1974  0.1112  0.3631
 2247PW       W11675   3.456  10.482   1.160  0.0021 -0.0297  0.0269
 2247PW      WP11676   3.568  10.555   1.118 -0.2273  0.3677  0.0845
 2247PW      WM11677   3.420  10.356   1.211 -0.1915  0.1234  0.2770
 2248PW       W11678   7.736   4.236  11.534  0.0989  0.2832 -0.2739
 2248PW      WP11679   7.871   4.229  11.498  0.1865  0.2879  0.0326
 2248PW      WM11680   7.727   4.304  11.656  0.0253  0.1482 -0.2022
 2249PW       W11681  11.057   9.832   1.911  0.3188 -0.0580  0.4048
 2249PW      WP11682  11.118   9.904   1.808  0.0703 -0.2121  0.1465
 2249PW      WM11683  11.123   9.711   1.885  0.1132 -0.0676 -0.1135
 2250PW       W11684  11.424   5.235   1.848  0.2937  0.1680  0.0919
 2250PW      WP11685  11.361   5.355   1.811 -0.6391 -0.3637 -0.2250
 2250PW      WM11686  11.557   5.205   1.820  0.2157  0.1133 -0.2500
 2251PW       W11687   8.073   8.165   0.746  0.1433  0.2253  0.3977
 2251PW      WP11688   7.960   8.112   0.682  0.2798  0.1060  0.2538
 2251PW      WM11689   8.135   8.272   0.811  0.4707  0.0990  0.3020
 2252PW       W11690   8.260   7.393  12.195 -0.0882  0.0265  0.3740
 2252PW      WP11691   8.382   7.460  12.203  0.1588 -0.3768  0.1679
 2252PW      WM11692   8.125   7.356  12.190  0.0812 -0.6145 -0.1026
 2253PW       W11693   1.758   4.945   3.962 -0.4065  0.0153  0.2066
 2253PW      WP11694   1.723   5.070   4.014 -1.0252  0.1421 -0.4384
 2253PW      WM11695   1.803   4.835   4.036  0.3897  0.0526 -0.1675
 2254PW       W11696   7.654   9.593  10.707 -0.1274 -0.1441 -0.0983
 2254PW      WP11697   7.599   9.504  10.614  0.1214  0.0989 -0.4942
 2254PW      WM11698   7.791   9.616  10.728 -0.2915  0.6815  0.2545
 2255PW       W11699   5.023   8.368  10.145  0.0526  0.1862 -0.1880
 2255PW      WP11700   5.131   8.448  10.184 -0.1350  0.3603 -0.0174
 2255PW      WM11701   5.146   8.318  10.098  0.0930  0.3138 -0.2190
 2256PW       W11702   5.604   5.843   1.985  0.0240  0.1126 -0.0248
 2256PW      WP11703   5.680   5.949   1.934  0.2419  0.1692  0.3913
 2256PW      WM11704   5.551   5.878   2.110  0.6123 -0.0061  0.2803
 2257PW       W11705   2.597   7.891  11.642 -0.0166 -0.0610 -0.0443
 2257PW      WP11706   2.500   7.925  11.736  0.1580 -0.2801  0.2232
 2257PW      WM11707   2.465   7.909  11.685 -0.0613 -0.5514  0.0478
 2258PW       W11708   1.603   1.787  12.028  0.1977 -0.0479 -0.3507
 2258PW      WP11709   1.705   1.692  12.020  0.1378 -0.1222 -0.2541
 2258PW      WM11710   1.559   1.662  12.076 -0.5731  0.1035 -0.5846
 2259PW       W11711   3.270  11.106   1.812 -0.1783  0.0993  0.2289
 2259PW      WP11712   3.396  11.061   1.856 -0.0857  0.1038 -0.0255
 2259PW      WM11713   3.262  11.035   1.692  0.6105  0.0520  0.1788
 2260PW       W11714   8.326   6.969   9.716  0.4354  0.0193  0.0515
 2260PW      WP11715   8.230   7.005   9.812  0.2457  0.2988 -0.2336
 2260PW      WM11716   8.331   6.841   9.660 -0.3135  0.0031 -0.0293
 2261PW       W11717   6.211   0.699   3.253  0.3255  0.6391  0.1371
 2261PW      WP11718   6.294   0.599   3.305  0.1016  0.3390 -0.0648
 2261PW      WM11719   6.182   0.759   3.376  0.1677  0.3083  0.2672
 2262PW       W11720   7.204   3.924  10.466  0.5132  0.1950 -0.3825
 2262PW      WP11721   7.159   3.982  10.346  0.0245  0.3940 -0.1158
 2262PW      WM11722   7.198   4.036  10.549  0.0288  0.0454 -0.2040
 2263PW       W11723   3.909  10.927  12.633  0.4163  0.1467 -0.0308
 2263PW      WP11724   3.911  11.002  12.515  0.0477  0.3119  0.0576
 2263PW      WM11725   3.909  10.801  12.572  0.0540  0.2603 -0.2841
 2264PW       W11726   6.448  10.003   8.736  0.0178 -0.0889 -0.0530
 2264PW      WP11727   6.531  10.021   8.624  0.1021  0.5082  0.0873
 2264PW      WM11728   6.418   9.870   8.765  0.2819 -0.0724  0.3326
 2265PW       W11729   1.112   2.220  11.746 -0.1289  0.1980 -0.4857
 2265PW      WP11730   1.208   2.127  11.703  0.1739  0.0422  0.4199
 2265PW      WM11731   1.044   2.122  11.672 -0.2824 -0.0893  0.0096
 2266PW       W11732   1.623   0.048   9.178  0.1202 -0.0586 -0.0992
 2266PW      WP11733   1.656   0.074   9.045 -0.7311 -0.2852 -0.3826
 2266PW      WM11734   1.500   0.005   9.229  0.2322 -0.2769 -0.0058
 2267PW       W11735   2.636  11.411   1.209 -0.1339 -0.4462 -0.0884
 2267PW      WP11736   2.741  11.388   1.298 -0.2387 -0.0462  0.1514
 2267PW      WM11737   2.595  11.545   1.206  0.2539 -0.2896  0.6196
 2268PW       W11738   7.736   5.002   8.486  0.0705  0.1100  0.2231
 2268PW      WP11739   7.649   5.095   8.428  0.4921  0.6995  0.4840
 2268PW      WM11740   7.826   4.986   8.592 -0.0960 -0.6389  0.2807
 2269PW       W11741   3.379   0.600   9.175 -0.1705  0.3505 -0.0944
 2269PW      WP11742   3.467   0.704   9.143 -0.3416  0.5647  0.1075
 2269PW      WM11743   3.262   0.570   9.247  0.2816 -0.1033  0.5003
 2270PW       W11744   3.914   5.395  10.137 -0.1060 -0.0225  0.1953
 2270PW      WP11745   3.971   5.288  10.067 -0.3336  0.0863 -0.1746
 2270PW      WM11746   3.832   5.372  10.248 -0.0704 -0.7051  0.1021
 2271PW       W11747  10.258   5.990   4.639 -0.2275  0.2075  0.1866
 2271PW      WP11748  10.177   6.017   4.751 -0.3049 -0.3545  0.2806
 2271PW      WM11749  10.231   5.861   4.686  0.2818 -0.0070 -0.0778
 2272PW       W11750   4.736   8.329  13.041 -0.4982  0.0315 -0.5258
 2272PW      WP11751   4.719   8.344  12.902 -0.3004  0.0479 -0.5498
 2272PW      WM11752   4.818   8.267  12.945 -0.1370 -0.4809  0.0735
 2273PW       W11753   0.917   7.912  10.483  0.0258  0.1606  0.0677
 2273PW      WP11754   0.970   7.818  10.571  0.2321  0.2953  0.0909
 2273PW      WM11755   1.053   7.882  10.486 -0.0536 -0.2048  0.1810
 2274PW       W11756   8.293   9.138   0.943  0.5438 -0.1932 -0.2014
 2274PW      WP11757   8.382   9.082   1.036  0.9690  0.2125 -0.3517
 2274PW      WM11758   8.310   8.999   0.947 -0.1576 -0.2922  0.3851
 2275PW       W11759   4.878   0.537  12.004  0.0716 -0.1469  0.2438
 2275PW      WP11760   4.740   0.536  11.979  0.1819 -0.5224 -0.5268
 2275PW      WM11761   4.831   0.569  12.131 -0.0977  0.1553  0.1104
 2276PW       W11762   4.825   9.537   9.603  0.0526  0.0292  0.1298
 2276PW      WP11763   4.867   9.453   9.708  0.0930 -0.4877 -0.2800
 2276PW      WM11764   4.844   9.419   9.530 -0.3034  0.1835 -0.2255
 2277PW       W11765   4.138  11.804   4.394  0.2390 -0.4244 -0.6541
 2277PW      WP11766   4.022  11.870   4.354  0.0226 -0.3567  0.0259
 2277PW      WM11767   4.253  11.876   4.428 -0.0902 -0.0343 -0.3138
 2278PW       W11768   2.083   0.062   0.367 -0.3808 -0.0109  0.3549
 2278PW      WP11769   2.055   0.170   0.452  0.3823  0.3607  0.1787
 2278PW      WM11770   2.119  -0.035   0.272  0.0967 -0.0451  0.5560
 2279PW       W11771   3.440   6.023   1.253  0.1280 -0.1114  0.1245
 2279PW      WP11772   3.416   5.974   1.382  0.4147 -0.1901  0.1500
 2279PW      WM11773   3.563   6.090   1.263  0.0511  0.0075  0.2966
 2280PW       W11774   0.255   6.494   8.971  0.1764  0.0534 -0.0792
 2280PW      WP11775   0.119   6.510   8.943  0.2760  0.5007 -0.3617
 2280PW      WM11776   0.254   6.628   9.011  0.4413  0.0448 -0.0374
 2281PW       W11777  10.176   3.987   3.896  0.1047  0.0350 -0.4482
 2281PW      WP11778  10.230   4.064   3.792 -0.4333  0.3814 -0.4918
 2281PW      WM11779  10.231   3.975   4.025 -0.6667 -0.0776 -0.1042
 2282PW       W11780   5.265   1.895   9.753  0.3661 -0.0460  0.0680
 2282PW      WP11781   5.331   1.772   9.754  0.0369 -0.2276  0.0578
 2282PW      WM11782   5.270   1.984   9.645 -0.3166  0.1506  0.1746
 2283PW       W11783   7.586   9.092   2.065 -0.1582 -0.1586  0.3588
 2283PW      WP11784   7.560   9.115   1.930  0.3635 -0.1520  0.2476
 2283PW      WM11785   7.452   9.052   2.066 -0.0935 -0.4008  0.0457
 2284PW       W11786   6.651   1.930   9.486  0.0884 -0.1613  0.3472
 2284PW      WP11787   6.610   2.060   9.520  0.0894  0.0355 -0.3357
 2284PW      WM11788   6.590   1.805   9.505 -0.1092 -0.0921  0.1882
 2285PW       W11789   8.035   0.723   9.348 -0.1932 -0.0369 -0.0165
 2285PW      WP11790   8.000   0.694   9.215 -0.3795  0.0099  0.0212
 2285PW      WM11791   8.121   0.613   9.360 -0.1437  0.0433  0.4631
 2286PW       W11792   8.381   7.442  12.882  0.2932 -0.0929  0.1025
 2286PW      WP11793   8.439   7.366  12.779  0.0657  0.0786 -0.1614
 2286PW      WM11794   8.452   7.399  12.995  0.0425  0.2945  0.4189
 2287PW       W11795   0.734   4.059   1.749  0.3252  0.1344 -0.1399
 2287PW      WP11796   0.689   4.188   1.716  0.1829  0.1851  0.2233
 2287PW      WM11797   0.666   4.072   1.872  0.1439 -0.2294 -0.1973
 2288PW       W11798   6.601   0.139   3.879 -0.3838  0.2051  0.1340
 2288PW      WP11799   6.660   0.062   3.979  0.0593  0.4583  0.0823
 2288PW      WM11800   6.605   0.179   3.745  0.0641  0.1590  0.1259
 2289PW       W11801   5.332   4.678   1.029  0.1104 -0.0632 -0.0262
 2289PW      WP11802   5.467   4.688   1.065  0.0204 -0.1545  0.3617
 2289PW      WM11803   5.276   4.556   0.989 -0.0361 -0.1848  0.5153
 2290PW       W11804   2.429   4.311   9.962 -0.3262 -0.0985 -0.1918
 2290PW      WP11805   2.486   4.429   9.913  0.0012 -0.2018 -0.0747
 2290PW      WM11806   2.314   4.314  10.043 -0.3454  0.2510 -0.2229
 2291PW       W11807   2.387   6.216   8.656 -0.4737 -0.0822  0.1932
 2291PW      WP11808   2.427   6.101   8.725  0.9561 -0.1916 -0.6241
 2291PW      WM11809   2.355   6.275   8.779 -0.4746 -0.0786  0.1914
 2292PW       W11810   8.782   8.286   2.139 -0.1130 -0.2290 -0.0552
 2292PW      WP11811   8.669   8.276   2.220  0.0609  0.4308  0.3094
 2292PW      WM11812   8.766   8.179   2.050 -0.2731  0.1179 -0.4589
 2293PW       W11813  12.111  10.233  11.301 -0.5585 -0.2243  0.0811
 2293PW      WP11814  12.183  10.201  11.416 -0.1518  0.1517 -0.0572
 2293PW      WM11815  12.100  10.094  11.286 -0.3524 -0.3408  0.8056
 2294PW       W11816   5.134  11.750   1.414  0.0518 -0.2279  0.2159
 2294PW      WP11817   5.262  11.704   1.380 -0.1561 -0.3129 -0.5517
 2294PW      WM11818   5.017  11.802   1.358  0.2308 -0.0144  0.0299
 2295PW       W11819   4.236   9.465   2.429 -0.3228 -0.0741  0.2087
 2295PW      WP11820   4.097   9.450   2.419 -0.3706  0.4456 -0.0642
 2295PW      WM11821   4.256   9.338   2.372  0.0790 -0.1297  0.4545
 2296PW       W11822   8.001  11.662   2.724  0.1884 -0.1218  0.1752
 2296PW      WP11823   7.977  11.660   2.586 -0.2891 -0.1960  0.2513
 2296PW      WM11824   8.110  11.686   2.808  0.1357 -0.2871  0.2954
 2297PW       W11825   6.254  11.290  12.128  0.0797 -0.0534  0.2925
 2297PW      WP11826   6.241  11.263  11.991  0.0096  0.1483  0.2577
 2297PW      WM11827   6.321  11.287  12.005 -0.4360  0.1836 -0.0129
 2298PW       W11828   7.508  12.039   1.519 -0.4132  0.1822 -0.2581
 2298PW      WP11829   7.590  11.948   1.451 -0.1482  0.3234 -0.1376
 2298PW      WM11830   7.576  12.153   1.564 -0.0082 -0.2373  0.2631
 2299PW       W11831   6.125   2.764   9.559  0.3945  0.1024 -0.0765
 2299PW      WP11832   6.231   2.792   9.646  0.2308  0.0591  0.1406
 2299PW      WM11833   6.083   2.775   9.426  0.0760  0.2690  0.0316
 2300PW       W11834   4.031   5.617   4.871 -0.3071 -0.1741  0.3276
 2300PW      WP11835   4.136   5.559   4.944 -0.1271 -0.2765 -0.0017
 2300PW      WM11836   3.919   5.701   4.869  0.0464  0.3120 -0.0709
 2301PW       W11837   8.979   6.937   4.178  0.1306 -0.8578 -0.0304
 2301PW      WP11838   9.112   6.955   4.216 -0.0541 -0.3972  0.4712
 2301PW      WM11839   9.013   7.004   4.060  0.2910 -0.7118  0.0963
 2302PW       W11840   5.248   9.382  10.910  0.1730  0.4132  0.1361
 2302PW      WP11841   5.269   9.264  10.837  0.1655  0.5205 -0.0447
 2302PW      WM11842   5.291   9.291  11.007 -0.3915 -0.2256 -0.1675
 2303PW       W11843   0.675   7.041   4.816  0.0453  0.0044 -0.3242
 2303PW      WP11844   0.718   7.174   4.824  0.0242 -0.0120  0.3456
 2303PW      WM11845   0.673   6.966   4.698 -0.3518 -0.4250 -0.0606
 2304PW       W11846   6.788   4.203   0.284  0.1659  0.0766 -0.1366
 2304PW      WP11847   6.907   4.134   0.312 -0.1482 -0.3573  0.1983
 2304PW      WM11848   6.703   4.284   0.208 -0.0726 -0.2189 -0.1974
 2305PW       W11849   8.673   3.458  13.076  0.2168 -0.0368 -0.1655
 2305PW      WP11850   8.810   3.444  13.051  0.2808 -0.1285  0.2127
 2305PW      WM11851   8.578   3.443  13.178  0.0164 -0.5788 -0.4108
 2306PW       W11852   1.513  11.329   5.214 -0.1114  0.1792  0.1702
 2306PW      WP11853   1.378  11.350   5.183 -0.0082  0.3591 -0.1897
 2306PW      WM11854   1.534  11.387   5.088  0.1447  0.2578  0.2469
 2307PW       W11855   5.322   2.875  11.718  0.1146 -0.2848 -0.2046
 2307PW      WP11856   5.279   2.975  11.629  0.2805  0.1378  0.1727
 2307PW      WM11857   5.278   2.925  11.842 -0.2855 -0.1603 -0.3881
 2308PW       W11858  11.473   6.182  13.032 -0.6343  0.0572 -0.0801
 2308PW      WP11859  11.467   6.321  13.050  0.3716  0.1016  0.2212
 2308PW      WM11860  11.392   6.258  12.946 -0.3008  0.2712 -0.2155
 2309PW       W11861  11.077   0.095   3.450 -0.0641  0.0851 -0.3572
 2309PW      WP11862  10.993   0.190   3.510 -0.0581 -0.0282 -0.1662
 2309PW      WM11863  11.126   0.058   3.324  0.1133  0.2473 -0.3387
 2310PW       W11864   8.284   3.921   2.657  0.5483 -0.4922 -0.2551
 2310PW      WP11865   8.175   3.855   2.714  0.4280 -0.0280  0.0827
 2310PW      WM11866   8.305   4.013   2.553 -0.4177 -0.0503 -0.1072
 2311PW       W11867   3.994   8.597   2.440 -0.0399 -0.0435 -0.0016
 2311PW      WP11868   3.915   8.484   2.415 -0.0956  0.1126 -0.6219
 2311PW      WM11869   3.911   8.513   2.365  0.0850 -0.5062  0.3555
 2312PW       W11870   4.013   1.421  10.766  0.4663 -0.0799 -0.1774
 2312PW      WP11871   4.091   1.353  10.671  0.2687 -0.1475 -0.2944
 2312PW      WM11872   3.986   1.317  10.854  0.4174  0.1495  0.0839
 2313PW       W11873   0.474   5.373   9.635 -0.4689  0.1809 -0.3732
 2313PW      WP11874   0.589   5.445   9.600 -0.1713 -0.2605 -0.3483
 2313PW      WM11875   0.475   5.501   9.579 -0.5447  0.3941  0.0926
 2314PW       W11876   7.289   5.779   0.863 -0.2726  0.3165  0.0199
 2314PW      WP11877   7.320   5.815   0.995  0.1076  0.1794 -0.0275
 2314PW      WM11878   7.176   5.698   0.847 -0.0541  0.0497 -0.2147
 2315PW       W11879   6.870   7.900   2.506 -0.3085 -0.6735 -0.1840
 2315PW      WP11880   6.754   7.973   2.474  0.0528 -0.1778 -0.4285
 2315PW      WM11881   7.007   7.903   2.478 -0.1881 -0.0081  0.3402
 2316PW       W11882   4.857   5.446   4.693 -0.1711  0.4584  0.2810
 2316PW      WP11883   4.883   5.566   4.627  0.0223  0.4154  0.2758
 2316PW      WM11884   4.838   5.524   4.808  0.0216  0.6061  0.2137
 2317PW       W11885   5.548   3.962  12.180  0.1807  0.1410 -0.1555
 2317PW      WP11886   5.441   3.898  12.115  0.1233  0.1887 -0.1092
 2317PW      WM11887   5.628   4.060  12.122 -0.1432  0.2749 -0.3938
 2318PW       W11888   8.466   7.900  11.877 -0.2678  0.0910  0.1107
 2318PW      WP11889   8.406   7.774  11.890 -0.4508  0.2042  0.3887
 2318PW      WM11890   8.506   8.026  11.830 -0.5732  0.3906  0.6175
 2319PW       W11891  11.180  11.836   2.589  0.4175  0.4190  0.0929
 2319PW      WP11892  11.278  11.823   2.490 -0.2962 -0.2303 -0.6024
 2319PW      WM11893  11.120  11.819   2.714  0.0037 -0.1221 -0.1578
 2320PW       W11894   0.881   4.482   1.433  0.1090  0.0794  0.0319
 2320PW      WP11895   0.814   4.554   1.334  0.0732 -0.1656 -0.1284
 2320PW      WM11896   0.832   4.493   1.564 -0.1467  0.5984 -0.0984
 2321PW       W11897   4.352  10.293   8.883 -0.0353  0.2948 -0.2178
 2321PW      WP11898   4.339  10.324   9.019 -0.0310  0.0597 -0.1617
 2321PW      WM11899   4.351  10.229   9.008  0.6208  0.0718 -0.3055
 2322PW       W11900   3.715   6.689   0.451 -0.0781  0.1667  0.3123
 2322PW      WP11901   3.584   6.669   0.406 -0.0403 -0.6699  0.5009
 2322PW      WM11902   3.814   6.592   0.467 -0.3350 -0.2402 -0.3659
 2323PW       W11903   9.242   0.327   2.514  0.1161 -0.0415  0.0886
 2323PW      WP11904   9.160   0.400   2.427 -0.1200 -0.3725  0.0279
 2323PW      WM11905   9.350   0.315   2.426  0.2086  0.1821  0.1680
 2324PW       W11906  11.369   0.450   4.093 -0.1449  0.2737  0.0612
 2324PW      WP11907  11.381   0.578   4.038 -0.3419  0.1166 -0.3706
 2324PW      WM11908  11.419   0.332   4.037 -0.7123  0.0086  0.0780
 2325PW       W11909  11.007   0.229  11.098  0.0270 -0.2396  0.2709
 2325PW      WP11910  10.995   0.108  11.168 -0.3804 -0.4165 -0.0822
 2325PW      WM11911  11.030   0.235  11.236  0.1987  0.0696  0.2317
 2326PW       W11912   4.653   3.350  11.373 -0.2160  0.2178  0.0998
 2326PW      WP11913   4.559   3.260  11.425 -0.0282  0.0842  0.2137
 2326PW      WM11914   4.713   3.455  11.303  0.1918 -0.0652  0.0088
 2327PW       W11915   6.064   5.642  11.426  0.2005  0.3287  0.1469
 2327PW      WP11916   6.025   5.770  11.388 -0.4314  0.0026 -0.4204
 2327PW      WM11917   6.004   5.538  11.353  0.3320  0.1597  0.2740
 2328PW       W11918   8.606  11.239  12.165 -0.3631  0.3533 -0.2233
 2328PW      WP11919   8.532  11.220  12.282  0.4090  0.1650  0.2715
 2328PW      WM11920   8.634  11.332  12.266  0.1004  0.3284 -0.3170
 2329PW       W11921   6.222   0.984   3.605 -0.2850 -0.0030 -0.1265
 2329PW      WP11922   6.200   0.884   3.510  0.1843 -0.2444  0.0054
 2329PW      WM11923   6.136   1.085   3.651 -0.0550  0.1844 -0.0986
 2330PW       W11924   0.581   4.092  12.067 -0.3670  0.3129  0.0988
 2330PW      WP11925   0.647   3.972  12.092 -0.0200  0.4321 -0.1901
 2330PW      WM11926   0.549   4.114  11.932 -0.4061  0.3433  0.1129
 2331PW       W11927   9.515   4.927   9.117  0.5000 -0.1539  0.2937
 2331PW      WP11928   9.569   4.983   9.233  0.3451  0.0658  0.2629
 2331PW      WM11929   9.561   4.919   8.985  0.5730  0.1937  0.2938
 2332PW       W11930   9.099   5.522   2.726  0.2441 -0.4006  0.1962
 2332PW      WP11931   9.215   5.589   2.769  0.5750 -0.4545 -0.5323
 2332PW      WM11932   9.131   5.481   2.596 -0.4464 -0.2985 -0.0229
 2333PW       W11933   4.381   6.670   2.349 -0.3385 -0.2567 -0.3041
 2333PW      WP11934   4.286   6.754   2.409  0.3177  0.3262  0.0002
 2333PW      WM11935   4.255   6.624   2.387 -0.4683  0.3276  0.0329
 2334PW       W11936  11.539   8.364  10.977 -0.0664 -0.1422  0.2841
 2334PW      WP11937  11.501   8.453  11.078  0.2775  0.3040  0.0355
 2334PW      WM11938  11.481   8.256  10.910  0.2203 -0.0196 -0.1792
 2335PW       W11939   4.620  11.830   2.801  0.1443 -0.1207  0.0849
 2335PW      WP11940   4.594  11.746   2.910  0.2047  0.0339  0.2192
 2335PW      WM11941   4.507  11.795   2.725  0.0303  0.5020 -0.0593
 2336PW       W11942   4.830   4.526   1.236 -0.0674 -0.2789 -0.2403
 2336PW      WP11943   4.898   4.451   1.333  0.1887  0.4548  0.1891
 2336PW      WM11944   4.904   4.435   1.159  0.1348 -0.0282 -0.3480
 2337PW       W11945   3.010   8.790   3.193 -0.1315  0.2317 -0.6966
 2337PW      WP11946   3.123   8.734   3.134  0.1348 -0.2836  0.1966
 2337PW      WM11947   3.033   8.926   3.219  0.1664  0.0762 -0.0381
 2338PW       W11948   8.929   1.468   3.981  0.0772 -0.1737 -0.2351
 2338PW      WP11949   8.912   1.403   3.858 -0.5873 -0.3822 -0.0575
 2338PW      WM11950   9.014   1.486   4.090  0.1555  0.0255 -0.3265
 2339PW       W11951   3.814   6.610  10.030 -0.0777  0.2917 -0.0453
 2339PW      WP11952   3.877   6.537   9.928  0.1261  0.1845  0.1535
 2339PW      WM11953   3.913   6.674  10.105 -0.1652  0.5846 -0.1731
 2340PW       W11954   2.433   4.053   4.104  0.3175 -0.2721 -0.0427
 2340PW      WP11955   2.562   4.090   4.143  0.3306 -0.4131  0.0551
 2340PW      WM11956   2.515   4.104   4.003 -0.0451 -0.0446 -0.2322
 2341PW       W11957   1.061   2.115   9.979  0.0171 -0.4981 -0.0758
 2341PW      WP11958   0.959   2.141  10.072 -0.0114  0.0063 -0.2314
 2341PW      WM11959   0.930   2.065   9.983 -0.3513  0.3845  0.1670
 2342PW       W11960   4.436   9.105   1.648 -0.1897  0.0289  0.0618
 2342PW      WP11961   4.406   8.981   1.589 -0.3918  0.0425  0.1306
 2342PW      WM11962   4.362   9.210   1.592  0.2547  0.1895 -0.2497
 2343PW       W11963   0.521   0.735   4.228  0.0447 -0.3445  0.3612
 2343PW      WP11964   0.490   0.599   4.208 -0.4857 -0.1614 -0.2282
 2343PW      WM11965   0.661   0.734   4.228  0.0738  0.4164 -0.0718
 2344PW       W11966   7.218  11.417   1.812  0.2765  0.0305 -0.5112
 2344PW      WP11967   7.240  11.553   1.839 -0.1503 -0.0682  0.5878
 2344PW      WM11968   7.080  11.392   1.819  0.3148 -0.2186 -0.5882
 2345PW       W11969   9.143   8.745   1.302  0.2545 -0.0920 -0.1012
 2345PW      WP11970   9.181   8.722   1.169  0.2829  0.1571 -0.1374
 2345PW      WM11971   9.093   8.793   1.424  0.2806  0.0877 -0.1608
 2346PW       W11972  11.577   8.136  12.438  0.3224 -0.2257 -0.0629
 2346PW      WP11973  11.619   8.054  12.543 -0.7489 -0.6739  0.0813
 2346PW      WM11974  11.640   8.204  12.333 -0.1275 -0.0264 -0.2168
 2347PW       W11975   8.296   3.557   3.521 -0.3029  0.0369 -0.2748
 2347PW      WP11976   8.368   3.664   3.574 -0.0580 -0.3132  0.1237
 2347PW      WM11977   8.346   3.577   3.392 -0.1150 -0.0614 -0.2181
 2348PW       W11978   4.918   3.252   1.208  0.1609 -0.1973  0.1132
 2348PW      WP11979   4.887   3.382   1.250  0.1906  0.0528 -0.5694
 2348PW      WM11980   5.033   3.240   1.286  0.2406 -0.2270 -0.0077
 2349PW       W11981   2.975   5.655   3.280 -0.9561  0.2797 -0.1302
 2349PW      WP11982   2.915   5.553   3.205 -0.5341 -0.1356  0.0696
 2349PW      WM11983   2.968   5.779   3.216 -0.1819  0.3736 -0.0793
 2350PW       W11984   2.208  11.912   2.816  0.1057 -0.2332 -0.0573
 2350PW      WP11985   2.091  11.985   2.796  0.1041 -0.0185  0.6115
 2350PW      WM11986   2.245  11.856   2.693 -0.3053 -0.2416 -0.1835
 2351PW       W11987   5.089   4.368   1.652 -0.2555  0.4396  0.0197
 2351PW      WP11988   5.222   4.392   1.615 -0.3042  0.3131 -0.2474
 2351PW      WM11989   4.968   4.384   1.584 -0.2638 -0.3485 -0.1949
 2352PW       W11990  11.334   3.272   2.128 -0.3900 -0.6693  0.1345
 2352PW      WP11991  11.456   3.204   2.121  0.2821  0.4360 -0.0201
 2352PW      WM11992  11.460   3.316   2.170 -0.4966  0.3415 -0.4539
 2353PW       W11993   0.509   6.094   2.793 -0.2737 -0.0946  0.1354
 2353PW      WP11994   0.590   6.017   2.878  0.1182 -0.1654 -0.2869
 2353PW      WM11995   0.372   6.068   2.799 -0.2807 -0.1018 -0.0464
 2354PW       W11996   2.065   2.516  11.252 -0.6666 -0.0241 -0.1154
 2354PW      WP11997   2.159   2.602  11.194 -0.0998 -0.4329  0.1422
 2354PW      WM11998   2.030   2.427  11.355  0.2477 -0.0723  0.1984
 2355PW       W11999  10.573   4.674   4.999 -0.4997  0.1687  0.1648
 2355PW      WP12000  10.582   4.751   5.115 -0.1734  0.2671  0.0804
 2355PW      WM12001  10.582   4.813   4.978  0.2489  0.1398  0.1517
 2356PW       W12002   1.564   3.352   9.343 -0.4244 -0.0661  0.0466
 2356PW      WP12003   1.635   3.406   9.451  0.0427 -0.2368 -0.1655
 2356PW      WM12004   1.695   3.304   9.353 -0.3389  0.1808  0.1465
 2357PW       W12005   9.696   7.302  11.785  0.1373  0.0090  0.5517
 2357PW      WP12006   9.571   7.247  11.750  0.3054  0.1453 -0.4259
 2357PW      WM12007   9.673   7.437  11.757 -0.1517 -0.0470  0.4955
 2358PW       W12008   8.251   9.516   2.664 -0.2933 -0.0151  0.2480
 2358PW      WP12009   8.202   9.645   2.642 -0.2303 -0.0770 -0.3321
 2358PW      WM12010   8.310   9.459   2.778  0.0996 -0.2154 -0.0427
 2359PW       W12011   1.032   1.974  11.282 -0.0603 -0.1832 -0.1297
 2359PW      WP12012   0.957   1.858  11.265  0.2717 -0.4562  0.1793
 2359PW      WM12013   1.148   1.926  11.344 -0.0678  0.7130  0.7120
 2360PW       W12014  11.721   4.007  11.411 -0.1952  0.0002  0.2481
 2360PW      WP12015  11.748   4.029  11.547  0.0334 -0.2530  0.2497
 2360PW      WM12016  11.736   3.958  11.281  0.1896  0.1173  0.2425
 2361PW       W12017   6.143   7.901   4.563 -0.1093  0.2589  0.1644
 2361PW      WP12018   6.022   7.832   4.578  0.1204 -0.1321  0.2764
 2361PW      WM12019   6.221   7.935   4.674 -0.4308 -0.1522  0.5318
 2362PW       W12020  10.439   1.177   9.388  0.2424 -0.2358  0.2784
 2362PW      WP12021  10.485   1.061   9.451  0.5398 -0.1654  0.2020
 2362PW      WM12022  10.506   1.244   9.491 -0.2353  0.5840  0.1032
 2363PW       W12023   8.368   9.295   5.072  0.1080 -0.1998  0.0555
 2363PW      WP12024   8.265   9.217   5.019  0.2219 -0.0605 -0.3889
 2363PW      WM12025   8.306   9.218   4.973  0.1087 -0.5527  0.3180
 2364PW       W12026   6.812   1.890   0.382  0.2954  0.3471 -0.4272
 2364PW      WP12027   6.952   1.895   0.381  0.3296 -0.2928 -0.5019
 2364PW      WM12028   6.675   1.921   0.388  0.2161 -0.0354 -0.0139
 2365PW       W12029   1.806   8.349   4.371  0.0659  0.0836  0.4210
 2365PW      WP12030   1.799   8.212   4.396 -0.1870  0.0093 -0.0086
 2365PW      WM12031   1.901   8.450   4.391  0.3054 -0.0233 -0.0980
 2366PW       W12032   2.268   6.338  12.600 -0.0423 -0.1058  0.2039
 2366PW      WP12033   2.154   6.390  12.662 -0.0102  0.3178 -0.0664
 2366PW      WM12034   2.339   6.220  12.625  0.1636  0.0169  0.2152
 2367PW       W12035   9.227   5.944   8.565  0.0481 -0.1680  0.2156
 2367PW      WP12036   9.154   6.045   8.629 -0.0582  0.1482 -0.3682
 2367PW      WM12037   9.134   5.854   8.512  0.0060  0.0479 -0.0910
 2368PW       W12038   2.238   9.473   2.845  0.1840 -0.1957  0.1625
 2368PW      WP12039   2.149   9.382   2.903 -0.0645 -0.1198 -0.0899
 2368PW      WM12040   2.163   9.414   2.742 -0.0354 -0.0320  0.2259
 2369PW       W12041  10.491   1.961   1.855 -0.1849 -0.0442 -0.0782
 2369PW      WP12042  10.434   1.979   1.982  0.2252  0.3189  0.0674
 2369PW      WM12043  10.544   2.031   1.746  0.4304 -0.6173 -0.1747
 2370PW       W12044   6.197   2.807  12.653  0.0381  0.1597 -0.1272
 2370PW      WP12045   6.294   2.710  12.624 -0.0826 -0.0563  0.1582
 2370PW      WM12046   6.060   2.823  12.626 -0.1730 -0.4052  0.4558
 2371PW       W12047   3.995   6.290   2.365  0.1253 -0.3204 -0.3214
 2371PW      WP12048   4.093   6.391   2.368 -0.2906  0.1020 -0.3252
 2371PW      WM12049   4.072   6.175   2.385  0.0946 -0.3580 -0.4180
 2372PW       W12050   8.540   1.594   4.369 -0.0994  0.0277  0.1564
 2372PW      WP12051   8.604   1.474   4.405 -0.3179 -0.2707 -0.3792
 2372PW      WM12052   8.422   1.654   4.322 -0.2425 -0.1726  0.2484
 2373PW       W12053   7.467   4.605   8.331  0.2708  0.2240 -0.0511
 2373PW      WP12054   7.584   4.534   8.360 -0.0095 -0.1122  0.3112
 2373PW      WM12055   7.544   4.721   8.332  0.1545  0.3037  0.2853
 2374PW       W12056   0.103   4.026   1.657 -0.1162 -0.3701  0.0817
 2374PW      WP12057   0.057   4.156   1.638  0.3613 -0.2237 -0.1729
 2374PW      WM12058   0.216   3.973   1.592 -0.0318  0.2248 -0.2885
 2375PW       W12059  10.634   5.983   2.859 -0.1258  0.4860  0.0009
 2375PW      WP12060  10.765   5.965   2.905 -0.2634 -0.1010  0.2014
 2375PW      WM12061  10.763   6.030   2.833  0.0681  0.2568  0.4981
 2376PW       W12062   0.572   0.617  11.323  0.2289  0.1978  0.0953
 2376PW      WP12063   0.440   0.633  11.365  0.1008  0.4298 -0.3555
 2376PW      WM12064   0.635   0.619  11.198  0.5161  0.3764  0.2371
 2377PW       W12065   7.188   2.718   2.175 -0.0938 -0.1841  0.0176
 2377PW      WP12066   7.131   2.710   2.048  0.4332 -0.2824 -0.2257
 2377PW      WM12067   7.058   2.732   2.227 -0.2407 -0.2332 -0.3269
 2378PW       W12068   3.317   2.881  11.028  0.3385 -0.4075  0.3811
 2378PW      WP12069   3.408   2.779  11.001  0.3385 -0.4778  0.6351
 2378PW      WM12070   3.283   2.757  10.973 -0.3367 -0.1604  0.1912
 2379PW       W12071   0.431   9.227   9.663  0.5722  0.4858  0.2484
 2379PW      WP12072   0.450   9.260   9.529 -0.1069  0.3809  0.1044
 2379PW      WM12073   0.562   9.235   9.709  0.6784  0.4207 -0.0332
 2380PW       W12074   5.384   7.807   1.729 -0.4352  0.0120  0.1166
 2380PW      WP12075   5.392   7.668   1.717  0.2263  0.0349  0.1284
 2380PW      WM12076   5.522   7.823   1.748 -0.3727  0.1740 -0.3908
 2381PW       W12077   9.842  10.364  13.125 -0.0565 -0.3236 -0.2584
 2381PW      WP12078   9.822  10.258  13.215  0.1110 -0.0002  0.1746
 2381PW      WM12079   9.914  10.477  13.084 -0.2323 -0.0342  0.1850
 2382PW       W12080   5.591   5.458   9.387  0.2205 -0.1245 -0.1253
 2382PW      WP12081   5.507   5.384   9.472  0.0808  0.2730  0.0943
 2382PW      WM12082   5.534   5.443   9.259  0.1771 -0.5018 -0.0685
 2383PW       W12083   6.610   1.984  11.715 -0.0126  0.1740  0.1559
 2383PW      WP12084   6.516   1.884  11.741  0.2994 -0.2442 -0.2419
 2383PW      WM12085   6.616   2.105  11.785 -0.3665  0.2001  0.1487
 2384PW       W12086   5.795   0.422   0.497 -0.0610 -0.2326 -0.2198
 2384PW      WP12087   5.724   0.537   0.536 -0.2399 -0.4190  0.0143
 2384PW      WM12088   5.725   0.361   0.602 -0.3459  0.2049 -0.1409
 2385PW       W12089   2.572   0.884  12.619 -0.3613 -0.0474 -0.2751
 2385PW      WP12090   2.447   0.836  12.658 -0.1037 -0.0407  0.6793
 2385PW      WM12091   2.627   0.764  12.665  0.0308  0.1917 -0.0860
 2386PW       W12092   8.465   2.538  13.299 -0.1225 -0.0165  0.2761
 2386PW      WP12093   8.403   2.498  13.418  0.1173 -0.3430  0.2953
 2386PW      WM12094   8.600   2.548  13.266 -0.3014 -0.2281 -0.6630
 2387PW       W12095   2.541   9.099   3.532  0.2675  0.4406 -0.2011
 2387PW      WP12096   2.557   9.159   3.657  0.3798  0.3156 -0.1541
 2387PW      WM12097   2.609   8.977   3.537 -0.5351 -0.0328 -0.0016
 2388PW       W12098   6.516   4.977  11.452 -0.2149  0.4336 -0.3554
 2388PW      WP12099   6.579   5.073  11.533  0.0450 -0.0586  0.0503
 2388PW      WM12100   6.653   4.983  11.481 -0.2492  0.2117 -0.1330
 2389PW       W12101   3.707   2.285   3.401  0.4409 -0.0015  0.5100
 2389PW      WP12102   3.605   2.206   3.454 -0.0400  0.1614 -0.1163
 2389PW      WM12103   3.573   2.310   3.432  0.3796  0.3722 -0.0026
 2390PW       W12104   6.201  10.833   9.924  0.0360  0.1050 -0.2271
 2390PW      WP12105   6.240  10.708   9.873 -0.3688  0.1169 -0.5999
 2390PW      WM12106   6.109  10.842   9.818 -0.2312  0.3515  0.0167
 2391PW       W12107   4.002  10.581   3.713  0.0224 -0.0946  0.3634
 2391PW      WP12108   3.971  10.716   3.691 -0.2306 -0.1422  0.4191
 2391PW      WM12109   4.094  10.608   3.611 -0.1710 -0.3145  0.1250
 2392PW       W12110  11.911   7.497   3.465  0.0912 -0.6303  0.1312
 2392PW      WP12111  12.022   7.429   3.516  0.2786 -0.4876 -0.0771
 2392PW      WM12112  11.808   7.424   3.525 -0.4634  0.0274  0.0434
 2393PW       W12113   5.104   3.364   4.292 -0.1229  0.0117  0.0183
 2393PW      WP12114   5.163   3.490   4.276  0.2571 -0.1264  0.2572
 2393PW      WM12115   4.990   3.378   4.372  0.1307 -0.2780  0.4484
 2394PW       W12116  10.431   1.553   2.146 -0.3923 -0.3599 -0.2413
 2394PW      WP12117  10.494   1.554   2.020  0.1255  0.3067 -0.0066
 2394PW      WM12118  10.367   1.479   2.246  0.0163 -0.1426  0.2008
 2395PW       W12119   1.718  12.089   1.594  0.1680 -0.2580 -0.1415
 2395PW      WP12120   1.786  12.120   1.712  0.1228  0.2592 -0.2379
 2395PW      WM12121   1.580  12.085   1.568  0.1702  0.0661 -0.2228
 2396PW       W12122   2.831   9.828  12.758 -0.5797  0.3106 -0.2396
 2396PW      WP12123   2.724   9.744  12.723 -0.2391 -0.1728 -0.1658
 2396PW      WM12124   2.889   9.936  12.691  0.1430 -0.0348 -0.2114
 2397PW       W12125   6.247   6.470   3.137 -0.0517  0.0530  0.6268
 2397PW      WP12126   6.383   6.439   3.124 -0.1713 -0.3557  0.1461
 2397PW      WM12127   6.222   6.363   3.223 -0.0944  0.0300  0.5858
 2398PW       W12128  10.473   0.101   1.589 -0.3359 -0.1480 -0.0887
 2398PW      WP12129  10.552   0.208   1.631  0.0146 -0.2923 -0.3571
 2398PW      WM12130  10.350   0.041   1.618 -0.2919 -0.1749  0.0485
 2399PW       W12131  11.412   0.472   3.617  0.1567  0.0554  0.0347
 2399PW      WP12132  11.277   0.500   3.592  0.1480  0.0518  0.0753
 2399PW      WM12133  11.491   0.557   3.696 -0.0347  0.4001 -0.1347
 2400PW       W12134   8.090   6.233   3.462  0.3538  0.0353  0.6046
 2400PW      WP12135   8.066   6.365   3.422 -0.0538 -0.2010  0.0009
 2400PW      WM12136   7.995   6.132   3.443  0.4189  0.0313  0.2745
 2401PW       W12137   4.680   0.535   8.827  0.1813 -0.0529  0.0826
 2401PW      WP12138   4.689   0.429   8.736 -0.2039 -0.5148  0.5538
 2401PW      WM12139   4.652   0.671   8.847  0.1694 -0.0717  0.1941
 2402PW       W12140   8.269   6.637  12.470 -0.1034 -0.1731 -0.2610
 2402PW      WP12141   8.204   6.745  12.531 -0.1928 -0.3226 -0.0876
 2402PW      WM12142   8.328   6.583  12.585  0.2706 -0.3139 -0.5067
 2403PW       W12143  11.153   1.033   4.595  0.4880  0.2659  0.3887
 2403PW      WP12144  11.166   0.910   4.662  0.2235  0.2251  0.3727
 2403PW      WM12145  11.284   0.996   4.565  0.3139 -0.0689 -0.0136
 2404PW       W12146   9.493   5.857   5.408 -0.0902  0.1594 -0.2841
 2404PW      WP12147   9.484   5.993   5.441  1.1210  0.2162  0.0664
 2404PW      WM12148   9.569   5.742   5.389  0.3650  0.3966  0.0108
 2405PW       W12149   8.307   0.149   0.434  0.0505 -0.0593  0.0851
 2405PW      WP12150   8.441   0.186   0.414  0.0033  0.1648  0.1648
 2405PW      WM12151   8.232   0.032   0.440 -0.0952  0.0330  0.0869
 2406PW       W12152   0.311   9.225  10.607 -0.0848  0.2647  0.4429
 2406PW      WP12153   0.188   9.178  10.654  0.0635 -0.2257  0.3706
 2406PW      WM12154   0.336   9.254  10.473  0.3805 -0.5131  0.3274
 2407PW       W12155   1.959   5.768  11.577 -0.2406 -0.1781 -0.0726
 2407PW      WP12156   2.098   5.786  11.584 -0.2636 -0.1226  0.4470
 2407PW      WM12157   1.984   5.678  11.682 -0.0635 -0.2300 -0.1558
 2408PW       W12158   3.762   8.048  10.847  0.1573 -0.1635 -0.3576
 2408PW      WP12159   3.642   8.045  10.918  0.0982  0.3534 -0.4150
 2408PW      WM12160   3.778   8.188  10.843  0.3005 -0.0746  1.0296
 2409PW       W12161   7.843   3.992   4.107  0.1212 -0.2184 -0.0234
 2409PW      WP12162   7.845   4.042   3.977  0.4053  0.3373  0.1803
 2409PW      WM12163   7.959   4.005   4.184  0.1646  0.6017 -0.1877
 2410PW       W12164   5.367   4.227   4.588 -0.0268  0.2327  0.2384
 2410PW      WP12165   5.291   4.115   4.624 -0.1187  0.0585 -0.4255
 2410PW      WM12166   5.431   4.122   4.521 -0.1435  0.3184 -0.0124
 2411PW       W12167   7.568  11.681   3.957 -0.0595  0.4671 -0.2278
 2411PW      WP12168   7.479  11.623   3.866 -0.3104  0.4589  0.0144
 2411PW      WM12169   7.667  11.675   4.056 -0.5680 -0.6171  0.3052
 2412PW       W12170   6.353  11.268   3.617  0.3098  0.2360  0.2782
 2412PW      WP12171   6.472  11.200   3.645  0.1603 -0.3534 -0.3545
 2412PW      WM12172   6.354  11.134   3.657 -0.0795  0.0855 -0.1582
 2413PW       W12173   2.706  10.671  11.263 -0.2947 -0.3231 -0.4466
 2413PW      WP12174   2.608  10.742  11.194  0.0752  0.3459 -0.3276
 2413PW      WM12175   2.829  10.730  11.233 -0.1257 -0.4685 -0.0777
 2414PW       W12176   0.585   0.406   2.545 -0.1406 -0.2564 -0.1694
 2414PW      WP12177   0.676   0.361   2.449 -0.2054 -0.4820 -0.1289
 2414PW      WM12178   0.712   0.455   2.578 -0.0010 -0.4699 -0.3773
 2415PW       W12179   5.403   3.388   1.408  0.0021  0.1321  0.3241
 2415PW      WP12180   5.378   3.336   1.280  0.5794  0.3304  0.1114
 2415PW      WM12181   5.494   3.463   1.332 -0.1654 -0.0538 -0.0794
 2416PW       W12182   0.197   3.279  11.533 -0.2037 -0.5260 -0.5712
 2416PW      WP12183   0.193   3.157  11.602 -0.3777 -0.1288  0.1843
 2416PW      WM12184   0.321   3.342  11.542 -0.6567  0.3918  0.2319
 2417PW       W12185  10.018   9.319  12.373  0.1520  0.1814  0.3923
 2417PW      WP12186   9.915   9.292  12.463 -0.1949 -0.5136 -0.1642
 2417PW      WM12187  10.085   9.436  12.335 -0.3915  0.2956 -0.3218
 2418PW       W12188   6.908  11.367   0.643 -0.0509 -0.1310 -0.3955
 2418PW      WP12189   6.938  11.410   0.513 -0.0681  0.1778 -0.3010
 2418PW      WM12190   6.982  11.477   0.689  0.1186 -0.3962 -0.0094
 2419PW       W12191   5.637  11.644  11.068  0.2532  0.2719  0.1575
 2419PW      WP12192   5.720  11.709  11.160  0.4774  0.0985  0.0816
 2419PW      WM12193   5.558  11.755  11.039 -0.1424  0.0476  0.3449
 2420PW       W12194  10.943   4.909   2.767 -0.0791  0.5750 -0.1075
 2420PW      WP12195  10.876   5.023   2.722 -0.3147  0.4760 -0.0127
 2420PW      WM12196  10.962   4.883   2.631  0.4484  0.0798  0.0373
 2421PW       W12197   6.699   1.003  11.887 -0.1957  0.1008  0.1317
 2421PW      WP12198   6.764   1.114  11.832 -0.2646 -0.0231 -0.2137
 2421PW      WM12199   6.684   0.945  12.014 -0.0663  0.6074  0.3934
 2422PW       W12200   8.796  11.296  11.646 -0.1155  0.2287  0.2032
 2422PW      WP12201   8.684  11.329  11.569  0.0977 -0.1605 -0.3009
 2422PW      WM12202   8.793  11.436  11.645 -0.1729  0.2395 -0.5080
 2423PW       W12203   7.617   8.060   8.830  0.3121  0.0417 -0.0595
 2423PW      WP12204   7.635   8.034   8.694  0.1441 -0.1251 -0.0502
 2423PW      WM12205   7.634   8.169   8.743  0.1062 -0.2686 -0.5062
 2424PW       W12206   7.831   7.167   9.815  0.0151 -0.0458  0.4298
 2424PW      WP12207   7.835   7.283   9.737 -0.0466 -0.3757 -0.0869
 2424PW      WM12208   7.935   7.214   9.896  0.5323 -0.0296 -0.2051
 2425PW       W12209   1.438   4.621   3.023  0.2422 -0.2312  0.0714
 2425PW      WP12210   1.419   4.537   2.913 -0.1279 -0.0979  0.0250
 2425PW      WM12211   1.347   4.525   3.068  0.3718 -0.2374  0.3229
 2426PW       W12212   8.906  12.105   4.262 -0.0936  0.3739 -0.3135
 2426PW      WP12213   9.034  12.150   4.228 -0.2521  0.7313 -0.4584
 2426PW      WM12214   8.782  12.146   4.211 -0.2413 -0.0384 -0.3074
 2427PW       W12215   0.178  10.606   3.735 -0.3478 -0.5248 -0.2930
 2427PW      WP12216   0.091  10.500   3.763 -0.2280 -0.5374  0.0627
 2427PW      WM12217   0.262  10.524   3.659  0.0816 -0.6600  0.2940
 2428PW       W12218  10.840   9.117   8.486 -0.3049  0.2976 -0.0302
 2428PW      WP12219  10.710   9.111   8.435 -0.4878 -0.2248  0.4528
 2428PW      WM12220  10.780   9.066   8.601 -0.2363  0.4783  0.0874
 2429PW       W12221   1.777   7.087   4.623 -0.2751  0.0804  0.2137
 2429PW      WP12222   1.761   7.223   4.656 -0.2345  0.1509 -0.0482
 2429PW      WM12223   1.774   6.959   4.680 -0.3330 -0.2172 -0.4173
 2430PW       W12224   4.860   1.731   2.443 -0.0104  0.0611  0.0616
 2430PW      WP12225   4.945   1.835   2.482  0.1393  0.1890 -0.5490
 2430PW      WM12226   4.979   1.728   2.370  0.0385  0.3610  0.1236
 2431PW       W12227   4.010   3.891  12.963 -0.0329 -0.4806 -0.3284
 2431PW      WP12228   4.081   4.003  12.919 -0.2164 -0.3215 -0.2296
 2431PW      WM12229   4.051   3.813  13.071 -0.0754 -0.0375  0.0256
 2432PW       W12230  11.342   6.577   3.080  0.0791  0.3066  0.1857
 2432PW      WP12231  11.409   6.505   3.180  0.0896 -0.0853 -0.0932
 2432PW      WM12232  11.355   6.621   2.948  0.1249  0.3423  0.2020
 2433PW       W12233   7.378   0.628   9.942 -0.2380 -0.0126 -0.0024
 2433PW      WP12234   7.333   0.532   9.850  0.2985 -0.2146 -0.0742
 2433PW      WM12235   7.259   0.694   9.976 -0.2561 -0.1547  0.2202
 2434PW       W12236   4.983   0.349  12.793 -0.1036 -0.2286 -0.1130
 2434PW      WP12237   5.108   0.306  12.746  0.0078  0.0704 -0.0994
 2434PW      WM12238   4.901   0.448  12.848  0.0178 -0.2090  0.0360
 2435PW       W12239   8.667   2.870   1.337  0.2485 -0.0767 -0.2434
 2435PW      WP12240   8.530   2.849   1.356  0.1518  0.1923 -0.5842
 2435PW      WM12241   8.717   2.991   1.285 -0.2962  0.1725 -0.2164
 2436PW       W12242   5.461   9.209   0.336 -0.2067 -0.3725 -0.1833
 2436PW      WP12243   5.447   9.301   0.232  0.4638 -0.0155  0.0083
 2436PW      WM12244   5.567   9.155   0.262 -0.0275  0.2486 -0.4084
 2437PW       W12245   3.363  10.791   0.045 -0.0034 -0.0544 -0.5099
 2437PW      WP12246   3.326  10.820   0.177  0.2476  0.0095 -0.4514
 2437PW      WM12247   3.357  10.919  -0.011  0.1896  0.1661 -0.0570
 2438PW       W12248  11.948   4.887  11.029 -0.3763 -0.3243 -0.2856
 2438PW      WP12249  12.064   4.949  10.980 -0.5115  0.0020 -0.2045
 2438PW      WM12250  11.843   4.980  11.036 -0.4039 -0.3420 -0.4327
 2439PW       W12251   9.809   5.978   0.643  0.1407  0.0859  0.4774
 2439PW      WP12252   9.758   6.092   0.704 -0.3437  0.0646  0.1367
 2439PW      WM12253   9.872   5.860   0.686 -0.1012 -0.1445  0.2215
 2440PW       W12254   7.347  10.945  11.838  0.0059  0.2346 -0.3384
 2440PW      WP12255   7.424  10.835  11.797 -0.6416 -0.2817 -0.2634
 2440PW      WM12256   7.423  10.999  11.942 -0.2793 -0.0636  0.0385
 2441PW       W12257  11.390   7.981  11.222  0.3280 -0.1917 -0.1493
 2441PW      WP12258  11.488   7.901  11.161  0.0059 -0.6287 -0.1211
 2441PW      WM12259  11.362   7.880  11.315  0.5193  0.0275  0.1506
 2442PW       W12260   6.531   8.132  12.802 -0.4102 -0.1209  0.0446
 2442PW      WP12261   6.620   8.240  12.808 -0.4346 -0.1152  0.3670
 2442PW      WM12262   6.524   8.186  12.673  0.3682  0.2318  0.1200
 2443PW       W12263   2.586   9.949  12.367  0.1588  0.3704 -0.0162
 2443PW      WP12264   2.542   9.817  12.369 -0.0518  0.4403  0.1347
 2443PW      WM12265   2.610  10.035  12.258  0.2811  0.3334 -0.0180
 2444PW       W12266   5.591   1.546   1.929 -0.1129 -0.4366 -0.4586
 2444PW      WP12267   5.561   1.506   2.060  0.1180 -0.4099 -0.3956
 2444PW      WM12268   5.689   1.451   1.959 -0.1697 -0.3129  0.1871
 2445PW       W12269   7.075   9.635   1.615  0.0213 -0.1135  0.3994
 2445PW      WP12270   7.208   9.596   1.638  0.0413 -0.1438  0.2383
 2445PW      WM12271   7.027   9.690   1.735 -0.0220 -0.0158  0.3378
 2446PW       W12272   6.043   9.690   2.100  0.2234 -0.1241 -0.0612
 2446PW      WP12273   6.034   9.779   2.207 -0.4154  0.0598 -0.2482
 2446PW      WM12274   6.092   9.586   2.019 -0.4876 -0.1191 -0.5353
 2447PW       W12275  10.921   9.727  11.170  0.0239 -0.1525  0.1572
 2447PW      WP12276  10.972   9.763  11.295 -0.0508 -0.1085  0.1752
 2447PW      WM12277  10.827   9.830  11.152  0.1182 -0.1027 -0.0706
 2448PW       W12278   0.868   5.248  11.407  0.1247 -0.1682 -0.1429
 2448PW      WP12279   1.007   5.236  11.420  0.0789 -0.2690  0.3640
 2448PW      WM12280   0.804   5.217  11.286  0.0863  0.3013 -0.2495
 2449PW       W12281   6.176   6.622   9.596  0.0683 -0.0863  0.6440
 2449PW      WP12282   6.276   6.528   9.623 -0.0567 -0.2494  0.5492
 2449PW      WM12283   6.047   6.600   9.648 -0.3723 -0.3812 -0.4360
 2450PW       W12284   0.106  11.621   2.907  0.2538  0.5319  0.0419
 2450PW      WP12285   0.239  11.583   2.884  0.2540  0.5614 -0.0058
 2450PW      WM12286   0.073  11.558   2.787  0.0273  0.0584  0.3347
 2451PW       W12287   9.948  11.173  10.415  0.0900  0.0831  0.2276
 2451PW      WP12288  10.046  11.208  10.509  0.3933  0.2356 -0.1331
 2451PW      WM12289   9.996  11.219  10.292 -0.3638 -0.1767 -0.0642
 2452PW       W12290   6.043   9.747  11.802  0.4115  0.0149  0.0986
 2452PW      WP12291   6.056   9.639  11.714  0.0239 -0.0915  0.1624
 2452PW      WM12292   6.169   9.762  11.742  0.2079 -0.0091 -0.3529
 2453PW       W12293  10.852   2.151  13.258  0.2675 -0.3591 -0.1695
 2453PW      WP12294  10.864   2.193  13.391  0.6732 -0.5094 -0.1543
 2453PW      WM12295  10.951   2.057  13.286  0.5276 -0.0201  0.0927
 2454PW       W12296   3.033   9.047   8.529 -0.1512  0.2186  0.0416
 2454PW      WP12297   3.052   9.172   8.469  0.4147  0.1865  0.1327
 2454PW      WM12298   2.976   8.934   8.590  0.1984  0.0754  0.1121
 2455PW       W12299   9.559   0.862   9.249 -0.0973  0.2507 -0.3470
 2455PW      WP12300   9.695   0.892   9.245 -0.0633  0.1163 -0.2650
 2455PW      WM12301   9.539   0.740   9.182  0.2180 -0.1652  0.2668
 2456PW       W12302  10.698   3.462   9.717 -0.2082 -0.0048 -0.2170
 2456PW      WP12303  10.784   3.481   9.608  0.3574  0.0396  0.2184
 2456PW      WM12304  10.604   3.385   9.787  0.1727 -0.6465 -0.3720
 2457PW       W12305   9.758   1.223  12.497 -0.0405  0.1798  0.0230
 2457PW      WP12306   9.888   1.184  12.460 -0.1993 -0.1480 -0.2237
 2457PW      WM12307   9.711   1.334  12.567 -0.2841  0.1581 -0.1003
 2458PW       W12308   6.771   0.829   2.272  0.3616  0.4928 -0.3624
 2458PW      WP12309   6.813   0.715   2.202  0.3523  0.1241  0.1940
 2458PW      WM12310   6.683   0.925   2.323  0.1789  0.0313  0.2491
 2459PW       W12311   6.723   9.804   0.912 -0.0792 -0.0209  0.3289
 2459PW      WP12312   6.666   9.709   0.998  0.1146 -0.5395 -0.0901
 2459PW      WM12313   6.623   9.727   0.973 -0.5584  0.3208  0.0177
 2460PW       W12314   4.515  11.534  12.755  0.1908 -0.1548  0.0940
 2460PW      WP12315   4.636  11.567  12.691 -0.1177  0.4627 -0.2175
 2460PW      WM12316   4.422  11.605  12.677  0.0143  0.1351  0.5499
 2461PW       W12317  11.653   6.818   2.653  0.0110  0.0993  0.1067
 2461PW      WP12318  11.521   6.788   2.615  0.0300  0.4770 -0.2933
 2461PW      WM12319  11.709   6.887   2.762  0.1031  0.1425  0.0321
 2462PW       W12320   5.074   9.446   2.251 -0.1987 -0.2794 -0.0783
 2462PW      WP12321   5.024   9.467   2.122 -0.1860  0.0633 -0.0323
 2462PW      WM12322   5.058   9.313   2.295 -0.5682 -0.1811  0.1120
 2463PW       W12323   0.161  10.608   9.702 -0.4270  0.1150 -0.0726
 2463PW      WP12324   0.215  10.708   9.621 -0.1803 -0.1321 -0.2225
 2463PW      WM12325   0.273  10.661   9.766 -0.1644 -0.6432  0.1551
 2464PW       W12326   7.093   3.140   3.182  0.6305 -0.1684 -0.2301
 2464PW      WP12327   7.152   3.193   3.297  0.0866 -0.0664  0.0132
 2464PW      WM12328   7.005   3.239   3.138  0.5695 -0.0622  0.1188
 2465PW       W12329   2.087  11.384   0.029  0.1847  0.0522  0.0574
 2465PW      WP12330   2.001  11.480   0.084  0.1219 -0.1587  0.3354
 2465PW      WM12331   2.059  11.521   0.044 -0.2067  0.0552 -0.5378
 2466PW       W12332   2.647  11.847   5.192 -0.1246 -0.0407  0.1933
 2466PW      WP12333   2.750  11.925   5.138 -0.2070  0.3147  0.5286
 2466PW      WM12334   2.561  11.956   5.213  0.1758  0.2925 -0.2140
 2467PW       W12335   8.303   5.738   9.520  0.1995  0.3793 -0.0887
 2467PW      WP12336   8.420   5.774   9.588  0.3409 -0.5509  0.2328
 2467PW      WM12337   8.402   5.699   9.429  0.1593  0.0302  0.0083
 2468PW       W12338   9.922   7.163  13.200 -0.0186 -0.4155  0.5880
 2468PW      WP12339  10.019   7.169  13.301  0.2291 -0.4817  0.3592
 2468PW      WM12340   9.999   7.047  13.210  0.3495 -0.2295  0.1210
 2469PW       W12341  11.405   2.267   9.996 -0.1352  0.2580 -0.3388
 2469PW      WP12342  11.518   2.349   9.985  0.1586 -0.1275 -0.2772
 2469PW      WM12343  11.433   2.404   9.998  0.1148  0.2232 -0.7335
 2470PW       W12344   6.093   2.305   3.821  0.2601 -0.3109 -0.1691
 2470PW      WP12345   6.107   2.336   3.957  0.1767 -0.1425 -0.1981
 2470PW      WM12346   5.954   2.316   3.813  0.2449  0.0634  0.3464
 2471PW       W12347   4.216   5.985  13.013  0.1663 -0.0214  0.2853
 2471PW      WP12348   4.348   5.954  12.980  0.1766  0.2296  0.0680
 2471PW      WM12349   4.227   6.036  12.883 -0.3781  0.0431  0.2528
 2472PW       W12350  11.536  11.288   9.692  0.2165  0.0357  0.1176
 2472PW      WP12351  11.465  11.193   9.765 -0.2551  0.4346  0.2045
 2472PW      WM12352  11.557  11.307   9.555  0.4494 -0.0971  0.1321
 2473PW       W12353   5.225   7.195   1.073  0.1766 -0.0040  0.1635
 2473PW      WP12354   5.147   7.148   1.179 -0.2141  0.1102 -0.0668
 2473PW      WM12355   5.140   7.186   1.183 -0.0128  0.7360  0.1031
 2474PW       W12356   2.515   4.328   0.567  0.0728 -0.0560 -0.0539
 2474PW      WP12357   2.427   4.382   0.472  0.2763 -0.4766 -0.5038
 2474PW      WM12358   2.454   4.216   0.624  0.1980 -0.1818 -0.1612
 2475PW       W12359   4.742  10.009   3.366  0.1534 -0.0314  0.0340
 2475PW      WP12360   4.759  10.019   3.227 -0.0916 -0.0777 -0.0019
 2475PW      WM12361   4.860   9.938   3.388  0.1505  0.0286  0.2626
 2476PW       W12362   2.116  11.460   2.735 -0.4675 -0.1148 -0.3339
 2476PW      WP12363   2.205  11.363   2.687 -0.0111  0.2607 -0.2881
 2476PW      WM12364   1.988  11.516   2.733 -0.3242  0.3179  0.4594
 2477PW       W12365   1.004   2.525   9.563 -0.1127  0.1582  0.1473
 2477PW      WP12366   0.908   2.468   9.479  0.1193 -0.0202 -0.0031
 2477PW      WM12367   1.117   2.532   9.480 -0.3462 -0.0613 -0.1988
 2478PW       W12368   6.870   2.885   4.121 -0.5918 -0.2048 -0.4863
 2478PW      WP12369   6.915   2.984   4.210 -0.5476 -0.2625 -0.4446
 2478PW      WM12370   6.936   2.765   4.146 -0.3260  0.0361  0.0571
 2479PW       W12371   5.504  10.897   3.828 -0.1770  0.1297 -0.6304
 2479PW      WP12372   5.531  10.841   3.703 -0.0172 -0.3057 -0.4105
 2479PW      WM12373   5.412  10.982   3.891 -0.0816 -0.0338 -0.2569
 2480PW       W12374   6.958   9.949   8.388  0.2389  0.0243  0.3891
 2480PW      WP12375   6.876  10.063   8.384 -0.1315 -0.2296 -0.3309
 2480PW      WM12376   6.854   9.863   8.422  0.0522  0.0709 -0.0243
 2481PW       W12377   8.205   5.240  10.486  0.0067  0.0027 -0.0662
 2481PW      WP12378   8.181   5.363  10.550 -0.1010 -0.0677  0.0302
 2481PW      WM12379   8.315   5.156  10.507 -0.3075 -0.3615  0.1804
 2482PW       W12380   6.773  12.071   3.253 -0.2158  0.1057  0.1238
 2482PW      WP12381   6.834  12.157   3.344 -0.0852 -0.0913  0.2258
 2482PW      WM12382   6.811  11.976   3.158 -0.1808  0.0262  0.2169
 2483PW       W12383   1.005   7.874   4.105 -0.2720  0.3959  0.0376
 2483PW      WP12384   0.956   7.897   3.976  0.3026  0.1422 -0.2428
 2483PW      WM12385   0.975   7.908   4.238  0.3793  0.0896  0.2828
 2484PW       W12386   2.748  11.657   0.202  0.1155 -0.0342  0.2052
 2484PW      WP12387   2.817  11.771   0.242 -0.6190  0.4146  0.2901
 2484PW      WM12388   2.824  11.589   0.106  0.0141  0.3279 -0.1474
 2485PW       W12389  10.014   3.986  11.897  0.0075  0.1997 -0.0005
 2485PW      WP12390  10.120   3.972  11.807  0.0929  0.2209  0.0959
 2485PW      WM12391   9.904   4.005  11.812  0.0725  0.4307 -0.0363
 2486PW       W12392  11.921   3.008   0.143  0.3917 -0.1817 -0.0164
 2486PW      WP12393  11.984   3.037   0.265 -0.2264 -0.4413  0.3912
 2486PW      WM12394  12.058   2.999   0.169  0.4359  0.3940  0.0003
 2487PW       W12395   9.733   5.108  12.744  0.1215 -0.3043 -0.0401
 2487PW      WP12396   9.857   5.045  12.730  0.1264 -0.1729 -0.7507
 2487PW      WM12397   9.679   5.203  12.832 -0.5354 -0.4794 -0.2296
 2488PW       W12398   2.402   6.730   0.122 -0.2442 -0.2992  0.1018
 2488PW      WP12399   2.488   6.647   0.050 -0.0902 -0.0566  0.0008
 2488PW      WM12400   2.450   6.701   0.251 -0.1212 -0.4590  0.0209
 2489PW       W12401   1.787   7.587  11.884  0.1954  0.0149  0.0272
 2489PW      WP12402   1.922   7.559  11.907  0.1717 -0.0839  0.0513
 2489PW      WM12403   1.693   7.682  11.842  0.4795  0.1970 -0.2128
 2490PW       W12404  11.107   2.833   0.233  0.0547  0.3012  0.0467
 2490PW      WP12405  11.093   2.880   0.364 -0.0395 -0.5190  0.3646
 2490PW      WM12406  11.241   2.847   0.268  0.1336 -0.1537 -0.0451
 2491PW       W12407   0.897   8.274   3.193 -0.4434  0.1754  0.0864
 2491PW      WP12408   0.881   8.316   3.060 -0.3649  0.1029  0.0532
 2491PW      WM12409   0.926   8.397   3.253  0.2453  0.2204 -0.2825
 2492PW       W12410   8.842   4.212   3.865  0.0288  0.2654  0.2243
 2492PW      WP12411   8.838   4.087   3.928  0.8967  0.1780  0.1608
 2492PW      WM12412   8.703   4.210   3.849  0.0693  0.2519 -0.1732
 2493PW       W12413   1.425   1.913   3.315 -0.0584 -0.0892 -0.0106
 2493PW      WP12414   1.527   1.900   3.410  0.3283 -0.2097 -0.4238
 2493PW      WM12415   1.483   1.915   3.188  0.1515  0.0289  0.0840
 2494PW       W12416   0.714   2.904   2.973  0.1117 -0.1431 -0.1421
 2494PW      WP12417   0.716   3.043   2.987  0.1629 -0.1581  0.0169
 2494PW      WM12418   0.696   2.772   3.017  0.2906 -0.1383 -0.0458
 2495PW       W12419  11.732   5.885   1.173 -0.3132 -0.2174 -0.2004
 2495PW      WP12420  11.602   5.930   1.200 -0.1248 -0.0245  0.4840
 2495PW      WM12421  11.756   6.023   1.181  0.1913 -0.3149  0.2409
 2496PW       W12422   7.229   2.253   1.933  0.0715 -0.0887 -0.2531
 2496PW      WP12423   7.168   2.247   1.807 -0.3352 -0.4291 -0.0542
 2496PW      WM12424   7.203   2.214   2.065 -0.0399 -0.0182 -0.2542
 2497PW       W12425   9.599  11.049  11.263 -0.6356 -0.4098  0.3102
 2497PW      WP12426   9.693  11.030  11.365  0.1449  0.4238 -0.1784
 2497PW      WM12427   9.479  11.079  11.197 -0.2058  0.2525 -0.2362
 2498PW       W12428   0.036   3.207   0.536 -0.1596 -0.0234  0.3161
 2498PW      WP12429   0.151   3.287   0.546  0.0341 -0.2249 -0.1315
 2498PW      WM12430  -0.051   3.187   0.429  0.0528 -0.2254  0.1750
 2499PW       W12431   9.332  10.480   2.297 -0.1829 -0.3931 -0.2631
 2499PW      WP12432   9.428  10.452   2.199  0.4701  0.3495  0.1133
 2499PW      WM12433   9.328  10.398   2.410  0.4828 -0.0817  0.0108
 2500PW       W12434   9.716   1.053  12.012  0.1348  0.1877  0.4456
 2500PW      WP12435   9.618   1.137  12.067 -0.3660 -0.1339  0.0927
 2500PW      WM12436   9.735   1.102  11.882 -0.4337  0.3107  0.3957
 2501PW       W12437   0.350  10.956  12.560 -0.0357  0.0916  0.3239
 2501PW      WP12438   0.251  10.997  12.651 -0.2350 -0.4093  0.3445
 2501PW      WM12439   0.364  11.025  12.438  0.2133 -0.5056 -0.0040
 2502PW       W12440   6.525   9.806  10.195  0.0112 -0.2103  0.2053
 2502PW      WP12441   6.517   9.946  10.198  0.0709 -0.1671 -0.5909
 2502PW      WM12442   6.387   9.789  10.200  0.0435 -0.4697  0.2823
 2503PW       W12443   2.773  11.517   3.538 -0.5800  0.2987  0.2365
 2503PW      WP12444   2.699  11.403   3.574  0.1068 -0.3380 -0.2173
 2503PW      WM12445   2.769  11.622   3.445 -0.2423  0.2073  0.1088
 2504PW       W12446   4.201  11.586  10.859 -0.2875 -0.0691 -0.0275
 2504PW      WP12447   4.278  11.536  10.965  0.1259  0.1146 -0.2286
 2504PW      WM12448   4.294  11.489  10.900 -0.1192  0.0830 -0.0387
 2505PW       W12449   5.538   0.577   4.431 -0.5238  0.2018 -0.2091
 2505PW      WP12450   5.432   0.493   4.398 -0.2769 -0.1923 -0.0330
 2505PW      WM12451   5.498   0.570   4.565 -0.1069 -0.1697 -0.0907
 2506PW       W12452   4.357   1.052   9.478  0.0688  0.1846  0.1811
 2506PW      WP12453   4.324   0.919   9.504 -0.5271  0.3288  0.2423
 2506PW      WM12454   4.426   1.140   9.393  0.0253  0.2551  0.2180
 2507PW       W12455   5.115   5.296   9.352 -0.0666 -0.1642  0.1705
 2507PW      WP12456   5.149   5.162   9.376  0.9371  0.0554  0.1950
 2507PW      WM12457   5.019   5.307   9.454 -0.0776  0.0695  0.1378
 2508PW       W12458   9.269   4.139   4.915 -0.1277  0.1292  0.0393
 2508PW      WP12459   9.192   4.036   4.859 -0.0243  0.2379 -0.3147
 2508PW      WM12460   9.358   4.180   4.816 -0.2542 -0.2640 -0.2513
 2509PW       W12461   6.054   8.568   9.771  0.4274 -0.4661  0.0450
 2509PW      WP12462   6.000   8.518   9.890 -0.2058 -0.2434 -0.1295
 2509PW      WM12463   6.054   8.433   9.735  0.1207 -0.3665 -0.3649
 2510PW       W12464   9.363  11.763   8.465  0.2282 -0.2963 -0.4367
 2510PW      WP12465   9.297  11.685   8.369 -0.4350 -0.4074  0.0652
 2510PW      WM12466   9.499  11.778   8.492 -0.0111  0.5367  0.6480
 2511PW       W12467   5.540   4.830   3.727 -0.4324  0.1786  0.1537
 2511PW      WP12468   5.410   4.848   3.776 -0.5778  0.2214 -0.2349
 2511PW      WM12469   5.521   4.692   3.710 -0.3515  0.2012 -0.1414
 2512PW       W12470   8.998   2.588   1.680 -0.0670 -0.0330  0.3028
 2512PW      WP12471   8.935   2.684   1.760 -0.0707  0.0106  0.2480
 2512PW      WM12472   9.126   2.590   1.623 -0.3885 -0.2513 -0.4962
 2513PW       W12473   2.234   4.070   8.541  0.2223 -0.3890 -0.2589
 2513PW      WP12474   2.220   3.997   8.660 -0.0132  0.1516  0.0606
 2513PW      WM12475   2.223   4.166   8.440 -0.3797  0.1084  0.2374
 2514PW       W12476   8.672   2.199   0.814 -0.2907  0.2907 -0.1465
 2514PW      WP12477   8.758   2.271   0.897  0.0607  0.2435 -0.4579
 2514PW      WM12478   8.628   2.141   0.694 -0.3234 -0.4378  0.1890
 2515PW       W12479   9.184   5.296   3.191 -0.1911  0.0714 -0.2636
 2515PW      WP12480   9.302   5.369   3.207 -0.1306  0.1379 -0.8890
 2515PW      WM12481   9.051   5.341   3.192  0.0226  0.7568 -0.2406
 2516PW       W12482   3.634  10.130  13.176 -0.3457 -0.1025 -0.2820
 2516PW      WP12483   3.668  10.076  13.300  0.3176  0.2798 -0.2738
 2516PW      WM12484   3.535  10.140  13.274 -0.1596  0.0532 -0.1053
 2517PW       W12485  11.226  11.706   9.242 -0.2393 -0.2839  0.0139
 2517PW      WP12486  11.140  11.672   9.138 -0.3643  0.2638 -0.0807
 2517PW      WM12487  11.216  11.835   9.188  0.4061 -0.1830  0.0936
 2518PW       W12488   6.653  11.338   2.390  0.1451  0.4031 -0.2300
 2518PW      WP12489   6.671  11.375   2.256  0.4491  0.6549 -0.1257
 2518PW      WM12490   6.639  11.453   2.469 -0.4560 -0.0027  0.3022
 2519PW       W12491   6.739   7.910   4.196  0.0978 -0.0774  0.0777
 2519PW      WP12492   6.803   7.787   4.211  0.4070  0.0467 -0.1726
 2519PW      WM12493   6.746   7.943   4.061  0.1036  0.0164  0.1004
 2520PW       W12494   7.761   9.048  11.856  0.0301 -0.1533  0.0794
 2520PW      WP12495   7.714   8.981  11.742  0.5516  0.4257 -0.5221
 2520PW      WM12496   7.769   9.027  11.994  0.3666  0.1357  0.1101
 2521PW       W12497  11.564   1.175   2.251  0.0987 -0.2361  0.2839
 2521PW      WP12498  11.488   1.116   2.149 -0.0344 -0.2454  0.3863
 2521PW      WM12499  11.601   1.095   2.359  0.0715 -0.3904  0.1803
 2522PW       W12500   5.566   7.456   0.834 -0.1250 -0.0829 -0.1566
 2522PW      WP12501   5.589   7.589   0.795  0.0380 -0.0652 -0.0060
 2522PW      WM12502   5.494   7.441   0.952  0.5947  0.3887  0.3910
 2523PW       W12503   5.718   4.907  12.000 -0.1461  0.0073 -0.0862
 2523PW      WP12504   5.729   4.783  12.064 -0.0796  0.0328 -0.0469
 2523PW      WM12505   5.855   4.910  11.968 -0.2242  0.6471 -0.4460
 2524PW       W12506  11.611   4.201   4.847 -0.0889  0.0819 -0.1016
 2524PW      WP12507  11.476   4.222   4.813  0.0082  0.4513 -0.2835
 2524PW      WM12508  11.690   4.262   4.750 -0.3695 -0.1749 -0.5091
 2525PW       W12509  10.049  11.597  11.478  0.0949  0.2058  0.0163
 2525PW      WP12510  10.148  11.688  11.516  0.0013  0.3585 -0.1017
 2525PW      WM12511  10.077  11.463  11.449  0.1946  0.2917 -0.3143
 2526PW       W12512   6.118  10.817   3.493 -0.1288  0.0964 -0.3177
 2526PW      WP12513   6.189  10.918   3.559  0.3457 -0.1757 -0.3897
 2526PW      WM12514   6.027  10.909   3.544  0.4515  0.2555  0.5339
 2527PW       W12515  11.451   6.414   8.886  0.1701 -0.1588  0.0865
 2527PW      WP12516  11.376   6.411   8.768  0.1068 -0.1216  0.1256
 2527PW      WM12517  11.316   6.410   8.922  0.1836 -0.6601  0.1186
 2528PW       W12518   4.924   8.066   1.483 -0.3741  0.2742 -0.4730
 2528PW      WP12519   4.875   7.935   1.473  0.1437 -0.0333  0.4378
 2528PW      WM12520   5.042   8.046   1.411 -0.1773  0.2380 -0.1469
 2529PW       W12521  11.155   6.386  11.396 -0.1779  0.1143 -0.2986
 2529PW      WP12522  11.079   6.392  11.278 -0.0071  0.0580 -0.4142
 2529PW      WM12523  11.247   6.291  11.352 -0.1204 -0.0552  0.1642
 2530PW       W12524   2.271   3.846   1.328 -0.0525  0.1436  0.6320
 2530PW      WP12525   2.169   3.925   1.273  0.0801 -0.2730 -0.3085
 2530PW      WM12526   2.407   3.819   1.308 -0.0953  0.2875  0.0497
 2531PW       W12527   3.890   1.631   0.932  0.1556  0.2561 -0.0108
 2531PW      WP12528   3.756   1.670   0.924 -0.0402 -0.3486  0.0783
 2531PW      WM12529   3.964   1.526   0.988 -0.2320 -0.0584 -0.0613
 2532PW       W12530  10.336   2.392   3.145  0.2726  0.4075 -0.5597
 2532PW      WP12531  10.223   2.454   3.091  0.0299 -0.0392 -0.5948
 2532PW      WM12532  10.261   2.301   3.068 -0.1227  0.2750 -0.0458
 2533PW       W12533   4.904   6.785  11.723  0.1599  0.0941 -0.0367
 2533PW      WP12534   5.021   6.810  11.651 -0.0972  0.1497 -0.4538
 2533PW      WM12535   4.810   6.751  11.821  0.1042 -0.5061 -0.2722
 2534PW       W12536   8.077   5.636  12.231  0.0968 -0.1005  0.0069
 2534PW      WP12537   8.105   5.597  12.100  0.3315 -0.6595  0.2052
 2534PW      WM12538   7.975   5.565  12.296  0.2760 -0.1717  0.2171
 2535PW       W12539  11.227   4.830   8.722  0.1619  0.1270 -0.2287
 2535PW      WP12540  11.149   4.813   8.607 -0.1905 -0.4303  0.0669
 2535PW      WM12541  11.245   4.692   8.735  0.4245  0.2004  0.3858
 2536PW       W12542  10.409   1.112  10.421  0.7095  0.0676  0.1139
 2536PW      WP12543  10.446   1.202  10.321 -0.0572 -0.2307 -0.4905
 2536PW      WM12544  10.392   1.176  10.545 -0.2644 -0.0788  0.0987
 2537PW       W12545   1.872   7.530   0.886 -0.2851 -0.0088 -0.1953
 2537PW      WP12546   1.835   7.396   0.867 -0.0890 -0.0656 -0.1863
 2537PW      WM12547   1.989   7.477   0.941 -0.3426 -0.3655 -0.4020
 2538PW       W12548   2.453   4.048   1.825 -0.2645  0.1096 -0.4455
 2538PW      WP12549   2.441   3.987   1.951 -0.5708  0.4497 -0.2978
 2538PW      WM12550   2.363   3.951   1.870  0.3505 -0.0758  0.5491
 2539PW       W12551   8.410  11.718   8.614 -0.0579  0.2630  0.0344
 2539PW      WP12552   8.425  11.854   8.583  0.4625  0.2934  0.3675
 2539PW      WM12553   8.330  11.605   8.633  0.1305  0.1210 -0.0029
 2540PW       W12554   4.965  11.445   2.770  0.3304 -0.8343  0.2698
 2540PW      WP12555   4.982  11.430   2.908  0.0767  0.3993  0.4935
 2540PW      WM12556   4.836  11.405   2.731  0.2004  0.2703 -0.7035
 2541PW       W12557   6.433   5.210  12.146  0.0463  0.0723  0.2119
 2541PW      WP12558   6.414   5.082  12.198  0.1798 -0.1025 -0.1560
 2541PW      WM12559   6.560   5.208  12.088  0.0973 -0.0573  0.3251
 2542PW       W12560   3.020   4.287   3.599  0.3854 -0.1195  0.2397
 2542PW      WP12561   2.884   4.299   3.567  0.2719 -0.5658  0.5086
 2542PW      WM12562   3.074   4.325   3.722  0.2031 -0.2908  0.3771
 2543PW       W12563   7.582   6.995  11.859  0.0472 -0.0534  0.3028
 2543PW      WP12564   7.696   7.051  11.917 -0.2112  0.4422  0.3632
 2543PW      WM12565   7.537   6.932  11.975 -0.1302  0.3524  0.4631
 2544PW       W12566   4.265   9.404  11.309 -0.4325  0.1077  0.1928
 2544PW      WP12567   4.276   9.497  11.206 -0.1058 -0.0204  0.1065
 2544PW      WM12568   4.169   9.305  11.334 -0.3824  0.0342  0.0957
 2545PW       W12569   6.484   1.463   0.285 -0.6670 -1.0369 -0.3425
 2545PW      WP12570   6.618   1.501   0.269 -0.7570 -0.2080  0.4504
 2545PW      WM12571   6.373   1.496   0.364 -0.1987 -0.0947 -0.0035
 2546PW       W12572   3.552   4.766   9.454  0.0455  0.1901  0.1976
 2546PW      WP12573   3.461   4.705   9.367 -0.0109  0.1071  0.3124
 2546PW      WM12574   3.578   4.678   9.348  0.8311  0.8232 -0.1946
 2547PW       W12575   2.052   8.515   3.015 -0.0164 -0.1682  0.9171
 2547PW      WP12576   1.958   8.411   3.021 -0.0324 -0.2057  0.3266
 2547PW      WM12577   2.128   8.588   3.107  0.3443  0.6100  0.0861
 2548PW       W12578   9.197   6.717   9.857 -0.3625  0.0734  0.1437
 2548PW      WP12579   9.239   6.704   9.724 -0.2736  0.1694  0.1628
 2548PW      WM12580   9.149   6.844   9.892 -0.1688  0.1442  0.1586
 2549PW       W12581   8.986  11.966   2.335  0.1713 -0.4742 -0.3471
 2549PW      WP12582   8.877  11.906   2.270 -0.0557 -0.1569 -0.2710
 2549PW      WM12583   9.110  12.029   2.315 -0.1297  0.3503  0.1180
 2550PW       W12584  10.804   5.140  13.193 -0.0587  0.2562 -0.3834
 2550PW      WP12585  10.903   5.176  13.100  0.1373  0.3252 -0.1532
 2550PW      WM12586  10.936   5.143  13.242 -0.3112 -0.0101  0.3847
 2551PW       W12587   2.038  10.976  12.249  0.0491 -0.1543 -0.5276
 2551PW      WP12588   1.986  11.075  12.165  0.4895  0.3317 -0.2577
 2551PW      WM12589   2.172  10.999  12.284 -0.0375 -0.1001 -0.2170
 2552PW       W12590   3.945   4.502   4.378  0.2261 -0.0236 -0.0559
 2552PW      WP12591   3.851   4.557   4.291  0.3602  0.1949 -0.0661
 2552PW      WM12592   3.986   4.368   4.386  0.3599  0.0169 -0.0478
 2553PW       W12593   2.526   9.486  10.074 -0.0885  0.2514 -0.0150
 2553PW      WP12594   2.396   9.451  10.036  0.0652  0.1259 -0.4624
 2553PW      WM12595   2.509   9.561  10.191 -0.0359  0.3158 -0.0476
 2554PW       W12596   9.117   4.740  10.625 -0.3373  0.0116  0.0809
 2554PW      WP12597   9.123   4.652  10.733 -0.5018 -0.1648 -0.0496
 2554PW      WM12598   9.191   4.858  10.634 -0.2131 -0.0886  0.4424
 2555PW       W12599  11.517   4.526  12.570  0.4108  0.3001 -0.2433
 2555PW      WP12600  11.446   4.444  12.482  0.0843  0.0360  0.2412
 2555PW      WM12601  11.547   4.473  12.697  0.0191  0.4518 -0.0818
 2556PW       W12602   2.434  10.730   1.925 -0.1875  0.1894  0.2550
 2556PW      WP12603   2.528  10.738   2.028 -0.3240 -0.4482  0.4498
 2556PW      WM12604   2.383  10.632   1.839  0.1194 -0.0303  0.3168
 2557PW       W12605  10.522   6.864   1.849 -0.1082  0.2861  0.0642
 2557PW      WP12606  10.425   6.771   1.887 -0.0303  0.1676 -0.0224
 2557PW      WM12607  10.516   6.869   1.989 -1.0226 -0.3349  0.0871
 2558PW       W12608   5.462  11.118   2.009 -0.1490 -0.1463 -0.1507
 2558PW      WP12609   5.496  10.983   2.019  0.2355 -0.0329  0.1847
 2558PW      WM12610   5.583  11.189   2.003 -0.1616 -0.1139 -0.0222
 2559PW       W12611   7.113   1.012  10.864 -0.0391 -0.2622 -0.0636
 2559PW      WP12612   7.180   1.000  10.743  0.3347 -0.0453  0.1150
 2559PW      WM12613   7.035   1.128  10.868  0.1396 -0.1411 -0.0862
 2560PW       W12614   2.679  12.103   2.788 -0.4582  0.1992 -0.0011
 2560PW      WP12615   2.581  12.166   2.711 -0.0852  0.2469 -0.4627
 2560PW      WM12616   2.629  11.973   2.804  0.1007 -0.0539 -0.1761
 2561PW       W12617  10.030   1.425   1.371 -0.1796 -0.1009  0.2679
 2561PW      WP12618   9.997   1.291   1.347  0.5114 -0.1507 -0.7401
 2561PW      WM12619  10.096   1.509   1.461  0.0253 -0.2101  0.2215
 2562PW       W12620   0.018   4.894   9.983 -0.0704  0.1873 -0.4218
 2562PW      WP12621   0.096   4.969  10.072 -0.3103 -0.1380  0.0840
 2562PW      WM12622  -0.031   4.777   9.924  0.0527 -0.2646  0.3179
 2563PW       W12623  10.849   3.096   8.907 -0.1017  0.0720  0.0654
 2563PW      WP12624  10.845   3.029   8.784 -0.7468  0.0548  0.0813
 2563PW      WM12625  10.818   3.140   9.036 -0.5074  0.1723 -0.0573
 2564PW       W12626   7.390   1.490  10.420 -0.7497 -0.1075  0.5228
 2564PW      WP12627   7.383   1.564  10.302 -0.0750 -0.2211  0.3907
 2564PW      WM12628   7.308   1.377  10.406  0.0944 -0.7731  0.4850
 2565PW       W12629   3.604   2.714   1.563  0.0931 -0.0499 -0.2122
 2565PW      WP12630   3.701   2.702   1.463  0.1771  0.1183 -0.1525
 2565PW      WM12631   3.667   2.623   1.648  0.1244 -0.0204 -0.2036
 2566PW       W12632  10.460   5.860   5.208  0.1035 -0.0226 -0.4972
 2566PW      WP12633  10.332   5.906   5.239  0.2203 -0.0987  0.1844
 2566PW      WM12634  10.381   5.752   5.168 -0.3574  0.0677  0.0961
 2567PW       W12635   2.648   9.068  13.278  0.4140 -0.1740 -0.0918
 2567PW      WP12636   2.745   9.158  13.325  0.1213  0.0219  0.1565
 2567PW      WM12637   2.672   9.018  13.150  0.6027 -0.1774 -0.0573
 2568PW       W12638   1.064   3.287   8.820 -0.2789  0.2460  0.2697
 2568PW      WP12639   1.174   3.264   8.736 -0.5694  0.0797 -0.0776
 2568PW      WM12640   0.972   3.195   8.769  0.0364 -0.0100  0.1445
 2569PW       W12641   7.162   6.387   3.669  0.6252 -0.5180  0.0785
 2569PW      WP12642   7.062   6.364   3.764  0.2464  0.0724 -0.1448
 2569PW      WM12643   7.232   6.505   3.700  0.4113 -0.4216  0.2027
 2570PW       W12644  10.440   9.722   8.984  0.0487 -0.1840  0.1396
 2570PW      WP12645  10.445   9.744   8.845  0.1071 -0.2608  0.1290
 2570PW      WM12646  10.338   9.667   9.062 -0.7733  0.0185 -0.6911
 2571PW       W12647   2.705  11.872   1.608 -0.3896  0.2787  0.0725
 2571PW      WP12648   2.755  11.986   1.544  0.4836 -0.0507  0.0989
 2571PW      WM12649   2.725  11.735   1.585 -0.3563  0.3392 -0.2768
 2572PW       W12650   6.267   4.779   5.215  0.1763 -0.0642  0.5635
 2572PW      WP12651   6.136   4.773   5.167  0.1779  0.3610  0.4873
 2572PW      WM12652   6.228   4.752   5.347 -0.2115  0.5573  0.5948
 2573PW       W12653  10.823   2.334   4.674 -0.1004 -0.0511  0.1041
 2573PW      WP12654  10.893   2.219   4.634 -0.6482 -0.2743 -0.2617
 2573PW      WM12655  10.938   2.399   4.721 -0.0065 -0.1271 -0.0162
 2574PW       W12656   9.430   5.140   2.646  0.2726  0.3239  0.3574
 2574PW      WP12657   9.467   5.161   2.512  0.3478 -0.5115  0.2190
 2574PW      WM12658   9.568   5.155   2.631  0.1891  0.4294 -0.6685
 2575PW       W12659   4.654   4.638   2.649  0.0665 -0.0732 -0.1052
 2575PW      WP12660   4.792   4.617   2.646  0.1154  0.2379 -0.4854
 2575PW      WM12661   4.552   4.660   2.555 -0.1158  0.3307  0.1760
 2576PW       W12662  10.205   8.117  10.385 -0.4298 -0.0362  0.5097
 2576PW      WP12663  10.179   7.994  10.324  0.3483  0.0143  0.0025
 2576PW      WM12664  10.319   8.097  10.464  0.1517 -0.5800 -0.3757
 2577PW       W12665   4.710   7.005   1.503 -0.1632  0.5074 -0.2965
 2577PW      WP12666   4.797   6.953   1.406  0.0321 -0.2218  0.2207
 2577PW      WM12667   4.638   7.124   1.489 -0.4430  0.3679 -0.0890
 2578PW       W12668   8.606   5.298   9.442  0.1837 -0.1790  0.1854
 2578PW      WP12669   8.607   5.202   9.340  0.4054 -0.1585  0.1668
 2578PW      WM12670   8.682   5.409   9.482  0.2613 -0.1750  0.0289
 2579PW       W12671   3.738   7.733   3.504 -0.1112 -0.2538  0.1978
 2579PW      WP12672   3.808   7.720   3.624  0.2251 -0.2641  0.0078
 2579PW      WM12673   3.619   7.751   3.431  0.1396 -0.5757 -0.3239
 2580PW       W12674   1.084   8.659  12.967  0.5327  0.4175  0.4008
 2580PW      WP12675   1.144   8.684  12.844  0.0410  0.2279  0.1091
 2580PW      WM12676   0.958   8.598  12.957  0.3937  0.7638 -0.0776
 2581PW       W12677   9.624  10.862  13.366  0.2470  0.0896  0.3503
 2581PW      WP12678   9.756  10.865  13.318  0.0977  0.3255 -0.0698
 2581PW      WM12679   9.602  10.995  13.404  0.0642  0.2339 -0.2177
 2582PW       W12680  10.999   3.886   9.868 -0.1146  0.1946  0.4153
 2582PW      WP12681  10.870   3.835   9.877  0.0051 -0.3014 -0.2550
 2582PW      WM12682  10.985   3.774   9.786 -0.1580  0.6623 -0.2603
 2583PW       W12683   4.147   2.421   9.152  0.2889  0.2997  0.0085
 2583PW      WP12684   4.242   2.398   9.052 -0.0739 -0.3773 -0.2138
 2583PW      WM12685   4.035   2.477   9.091  0.2787  0.6002  0.2909
 2584PW       W12686   6.620   9.908   1.415 -0.2912  0.4115  0.0877
 2584PW      WP12687   6.583   9.879   1.547  0.0909 -0.2126  0.0802
 2584PW      WM12688   6.734   9.982   1.449  0.0056 -0.2380  0.6191
 2585PW       W12689  11.597  11.412  12.426 -0.2992 -0.3034  0.1086
 2585PW      WP12690  11.526  11.499  12.342 -0.4432 -0.5461 -0.0274
 2585PW      WM12691  11.687  11.429  12.532 -0.2856 -0.6016  0.1492
 2586PW       W12692   6.909   8.244   1.123 -0.0183 -0.3213  0.2642
 2586PW      WP12693   7.030   8.182   1.090 -0.2203 -0.5733 -0.0342
 2586PW      WM12694   6.876   8.246   1.259  0.2878  0.1576  0.3445
 2587PW       W12695   8.812   7.107   5.555 -0.2168 -0.1192  0.0476
 2587PW      WP12696   8.828   7.243   5.525  0.2491 -0.2054 -0.1452
 2587PW      WM12697   8.839   7.035   5.671 -0.0428  0.1196  0.1600
 2588PW       W12698   4.560   7.216  12.484  0.1726 -0.0629  0.1991
 2588PW      WP12699   4.674   7.138  12.509  0.1425 -0.0555  0.3682
 2588PW      WM12700   4.603   7.340  12.437  0.1760 -0.1621 -0.0656
 2589PW       W12701   0.217   2.278   1.491 -0.0264  0.0784 -0.1020
 2589PW      WP12702   0.244   2.335   1.616  0.2184 -0.4156  0.0857
 2589PW      WM12703   0.108   2.328   1.419  0.0771  0.2054 -0.1705
 2590PW       W12704  11.420   3.852  12.747 -0.3723 -0.2202 -0.0889
 2590PW      WP12705  11.287   3.888  12.773 -0.1784  0.1949  0.4230
 2590PW      WM12706  11.531   3.936  12.740 -0.2102 -0.4305 -0.0783
 2591PW       W12707   9.848   7.358   1.773  0.3143 -0.2908  0.2441
 2591PW      WP12708   9.788   7.296   1.883 -0.0244  0.3358  0.4376
 2591PW      WM12709   9.760   7.334   1.667 -0.0328 -0.2821  0.5207
 2592PW       W12710   5.572  12.175   0.357  0.2512  0.1341 -0.3154
 2592PW      WP12711   5.700  12.160   0.411  0.0098 -0.6629  0.1132
 2592PW      WM12712   5.544  12.047   0.307  0.0887 -0.1245  0.3848
 2593PW       W12713   3.541   9.276   8.738  0.0902  0.1417  0.2727
 2593PW      WP12714   3.429   9.315   8.812 -0.1652 -0.3656  0.1760
 2593PW      WM12715   3.607   9.357   8.645  0.0888  0.1104  0.2440
 2594PW       W12716   5.865   1.589   2.453 -0.0663  0.1238  0.5790
 2594PW      WP12717   5.791   1.507   2.540  0.0204 -0.2531  0.3102
 2594PW      WM12718   5.801   1.673   2.361  0.3079 -0.0512  0.1383
 2595PW       W12719  11.097   6.161   2.798  0.2632  0.1817 -0.1268
 2595PW      WP12720  10.965   6.194   2.830  0.0892 -0.7793  0.3336
 2595PW      WM12721  11.198   6.107   2.879  0.3839 -0.1970 -0.5121
 2596PW       W12722   1.405   8.934   5.055  0.3492 -0.0623  0.0318
 2596PW      WP12723   1.481   8.834   4.994  0.5571  0.1762 -0.1145
 2596PW      WM12724   1.318   9.044   5.052 -0.0404 -0.3631 -0.0614
 2597PW       W12725   5.486  10.511  10.921 -0.1461 -0.1915  0.0206
 2597PW      WP12726   5.462  10.499  10.784  0.0462 -0.2938 -0.0062
 2597PW      WM12727   5.490  10.630  10.995 -0.3982 -0.1400 -0.0454
 2598PW       W12728   5.143   4.528   3.782  0.2605  0.1981 -0.5384
 2598PW      WP12729   5.269   4.528   3.719  0.2071 -0.1295 -0.6592
 2598PW      WM12730   5.013   4.574   3.760  0.0540 -0.2940 -0.4280
 2599PW       W12731   3.848   2.135  11.449  0.1676  0.2226 -0.1975
 2599PW      WP12732   3.728   2.102  11.384  0.0201  0.4205 -0.0338
 2599PW      WM12733   3.982   2.157  11.415  0.1173  0.3530 -0.3171
 2600PW       W12734   0.624  11.777  10.478  0.1689 -0.2047  0.0501
 2600PW      WP12735   0.663  11.792  10.611 -0.1870  0.1129  0.1277
 2600PW      WM12736   0.560  11.871  10.396 -0.2421 -0.5627 -0.0632
 2601PW       W12737   0.613   2.070   9.831  0.1454  0.0867  0.2111
 2601PW      WP12738   0.700   2.012   9.924 -0.0148 -0.1475  0.2176
 2601PW      WM12739   0.630   1.953   9.756 -0.0919  0.1099  0.1168
 2602PW       W12740  11.868   6.413   0.650 -0.1205  0.3552 -0.1358
 2602PW      WP12741  11.733   6.444   0.628 -0.2385 -0.1539 -0.1888
 2602PW      WM12742  11.989   6.426   0.719  0.2634 -0.3665 -0.6157
 2603PW       W12743   4.400   5.190   9.358  0.1516 -0.2611 -0.4064
 2603PW      WP12744   4.357   5.066   9.308 -0.1650 -0.2552 -0.1629
 2603PW      WM12745   4.537   5.160   9.348  0.1968 -0.1525 -0.1472
 2604PW       W12746   6.092   4.312  10.794 -0.0544  0.1849  0.2838
 2604PW      WP12747   5.963   4.275  10.834 -0.1427 -0.1868 -0.2862
 2604PW      WM12748   6.175   4.254  10.891  0.2958  0.0627 -0.0766
 2605PW       W12749   8.020   6.203  11.784  0.5983  0.4920 -0.5698
 2605PW      WP12750   7.952   6.282  11.691 -0.1275  0.3665 -0.1853
 2605PW      WM12751   7.996   6.066  11.772  0.6279  0.4545 -0.2485
 2606PW       W12752  10.209   9.760  12.434  0.1414  0.4628  0.4649
 2606PW      WP12753  10.200   9.639  12.365  0.0606  0.3662  0.6412
 2606PW      WM12754  10.272   9.781  12.557 -0.3365  0.3423  0.7392
 2607PW       W12755   3.765   9.282  11.871  0.0900  0.1528 -0.1699
 2607PW      WP12756   3.734   9.310  12.005 -0.2387 -0.4719 -0.0981
 2607PW      WM12757   3.751   9.310  11.735  0.3263  0.9173 -0.0566
 2608PW       W12758   5.143   5.873  12.205 -0.1090 -0.1898 -0.0837
 2608PW      WP12759   5.027   5.937  12.162  0.2100  0.2321 -0.3605
 2608PW      WM12760   5.248   5.881  12.298 -0.0570  0.0573 -0.1603
 2609PW       W12761   5.306   4.226  12.593  0.4923 -0.0034 -0.4017
 2609PW      WP12762   5.355   4.128  12.680 -0.2918  0.0424  0.1501
 2609PW      WM12763   5.177   4.248  12.542  0.4900  0.2294 -0.3031
 2610PW       W12764  10.234  11.436  12.854 -0.1516  0.4492 -0.0449
 2610PW      WP12765  10.334  11.416  12.949 -0.2128 -0.0579 -0.0737
 2610PW      WM12766  10.227  11.538  12.950 -0.0194  0.1351  0.3111
 2611PW       W12767  10.606  10.063  12.114 -0.2732  0.3708 -0.1007
 2611PW      WP12768  10.574  10.058  12.250  0.3721 -0.5695  0.0683
 2611PW      WM12769  10.673   9.961  12.045 -0.3477  0.0491  0.2827
 2612PW       W12770   2.272   9.639   5.036 -0.2875 -0.0007  0.1524
 2612PW      WP12771   2.144   9.693   5.051 -0.4545 -0.3985  0.2034
 2612PW      WM12772   2.394   9.668   5.098 -0.3338  0.2528  0.1292
 2613PW       W12773   8.639   7.463  11.855  0.1603  0.0488  0.3536
 2613PW      WP12774   8.668   7.358  11.766 -0.3415  0.1210  0.0881
 2613PW      WM12775   8.561   7.567  11.905  0.3586  0.2087  0.3375
 2614PW       W12776   6.815  11.909   8.527 -0.0142  0.0776  0.2331
 2614PW      WP12777   6.738  12.026   8.527 -0.0052  0.0835  0.2457
 2614PW      WM12778   6.836  11.892   8.389 -0.5944 -0.1776  0.1598
 2615PW       W12779   5.749   4.859  12.495  0.2297  0.0177 -0.8100
 2615PW      WP12780   5.719   4.978  12.563 -0.1693 -0.1953 -0.5953
 2615PW      WM12781   5.874   4.856  12.559 -0.1976 -0.4728  0.0892
 2616PW       W12782   2.357   7.855   3.587  0.0614  0.1963 -0.0570
 2616PW      WP12783   2.257   7.884   3.493  0.0089  0.0866 -0.0357
 2616PW      WM12784   2.388   7.991   3.597  0.1212  0.1799 -0.0146
 2617PW       W12785   7.080   4.746   1.317 -0.1605 -0.0883  0.0140
 2617PW      WP12786   7.144   4.633   1.265  0.3083  0.1274  0.0970
 2617PW      WM12787   7.008   4.847   1.252 -0.1656 -0.0224  0.1220
 2618PW       W12788   4.741  10.998   2.694 -0.2150  0.0819 -0.2563
 2618PW      WP12789   4.808  11.067   2.592  0.3064 -0.0279 -0.0045
 2618PW      WM12790   4.663  11.030   2.806  0.8966 -0.0526  0.6474
 2619PW       W12791   5.753   0.215   4.011 -0.0971  0.0147 -0.3080
 2619PW      WP12792   5.635   0.166   3.954  0.1515 -0.3083 -0.5631
 2619PW      WM12793   5.784   0.196   4.146  0.0226 -0.4830 -0.3937
 2620PW       W12794   8.804   9.414   3.310  0.1641  0.2451  0.0416
 2620PW      WP12795   8.756   9.538   3.355  0.2682  0.1470  0.4404
 2620PW      WM12796   8.936   9.396   3.268  0.0908  0.2367 -0.1950
 2621PW       W12797   7.938   5.272   3.401  0.2369  0.2467  0.0440
 2621PW      WP12798   7.964   5.214   3.526 -0.5140  0.2067  0.2009
 2621PW      WM12799   8.052   5.222   3.335  0.1756  0.2748 -0.0834
 2622PW       W12800  11.950  11.373   0.834  0.1496 -0.1800  0.0313
 2622PW      WP12801  11.836  11.358   0.914 -0.1097  0.2623 -0.2334
 2622PW      WM12802  11.859  11.418   0.737  0.2421  0.0823  0.0612
 2623PW       W12803   3.343   6.323   0.304 -0.1372 -0.0251  0.0007
 2623PW      WP12804   3.337   6.197   0.364  0.1442 -0.1211 -0.1644
 2623PW      WM12805   3.473   6.284   0.268 -0.0464  0.2517  0.0146
 2624PW       W12806   2.507   8.103   3.027  0.2372  0.0282 -0.2656
 2624PW      WP12807   2.388   8.055   3.084 -0.2542  0.5156 -0.8195
 2624PW      WM12808   2.526   8.200   2.929  0.3192  0.3212  0.0310
 2625PW       W12809   3.167   1.680  10.301  0.0869  0.1559  0.2113
 2625PW      WP12810   3.074   1.675  10.197  0.1586  0.0484  0.1520
 2625PW      WM12811   3.065   1.677  10.396 -0.0948 -0.1572  0.0133
 2626PW       W12812   6.231   0.413  11.906  0.5551 -0.0939  0.2684
 2626PW      WP12813   6.306   0.516  11.965  0.2642  0.3442 -0.0953
 2626PW      WM12814   6.225   0.280  11.865 -0.3156  0.0047 -0.0223
 2627PW       W12815   4.471  10.872   3.512  0.0868 -0.0551 -0.1092
 2627PW      WP12816   4.498  10.819   3.639  0.6033 -0.2471 -0.2858
 2627PW      WM12817   4.331  10.873   3.511  0.0798  0.4057  0.0933
 2628PW       W12818   5.322   5.071  13.016  0.0297 -0.2667  0.0494
 2628PW      WP12819   5.359   5.197  13.065 -0.3774 -0.2137  0.2422
 2628PW      WM12820   5.299   5.077  12.878 -0.1515  0.1932  0.0889
 2629PW       W12821   5.285   6.796  11.467  0.0377  0.2666  0.1457
 2629PW      WP12822   5.284   6.743  11.338 -0.3884  0.2273  0.1570
 2629PW      WM12823   5.188   6.800  11.568 -0.2404 -0.0956 -0.0975
 2630PW       W12824   2.676   0.936   0.347 -0.7863  0.4980 -0.5649
 2630PW      WP12825   2.578   0.865   0.276 -0.6365 -0.4752  0.0971
 2630PW      WM12826   2.707   1.066   0.387  0.6319  0.1744 -0.3309
 2631PW       W12827  11.536   1.300   9.375 -0.1610 -0.1978 -0.0873
 2631PW      WP12828  11.508   1.295   9.238  0.1944  0.3502 -0.1966
 2631PW      WM12829  11.449   1.340   9.478 -0.4527 -0.3102 -0.2827
 2632PW       W12830   9.229  11.298   9.688 -0.3717  0.3274  0.0652
 2632PW      WP12831   9.109  11.238   9.650 -0.0051 -0.5313  0.1438
 2632PW      WM12832   9.214  11.356   9.814 -0.1364  0.2100  0.1524
 2633PW       W12833   1.921   5.934  10.166 -0.1258 -0.4044 -0.0701
 2633PW      WP12834   1.970   5.900  10.039  0.0150 -0.1187 -0.0968
 2633PW      WM12835   1.806   5.956  10.242  0.1773 -0.3532  0.3949
 2634PW       W12836   8.531   0.348   2.992  0.0872 -0.0894 -0.0125
 2634PW      WP12837   8.529   0.351   2.852  0.1521 -0.0251 -0.0117
 2634PW      WM12838   8.588   0.272   3.095  0.1081  0.1887  0.1870
 2635PW       W12839   2.799   7.861   3.366 -0.2399 -0.0211  0.1315
 2635PW      WP12840   2.898   7.829   3.273 -0.1821 -0.3867  0.3124
 2635PW      WM12841   2.812   7.872   3.505 -0.3663 -0.2858  0.1681
 2636PW       W12842   7.859   7.583   9.589 -0.0252 -0.3639  0.0267
 2636PW      WP12843   7.985   7.638   9.615 -0.1615  0.0358 -0.1223
 2636PW      WM12844   7.885   7.460   9.651 -0.2510 -0.0130  0.8913
 2637PW       W12845   7.073   4.031   2.859 -0.0239  0.1516 -0.1691
 2637PW      WP12846   7.206   4.031   2.902  0.0317  0.0001 -0.3341
 2637PW      WM12847   6.937   4.041   2.890 -0.0235 -0.4133  0.0766
 2638PW       W12848   6.662   8.903   3.414 -0.0848 -0.3931 -0.0812
 2638PW      WP12849   6.783   8.863   3.472  0.1903  0.2354 -0.1799
 2638PW      WM12850   6.706   9.013   3.339  0.2033 -0.4956 -0.0672
 2639PW       W12851   9.875   9.362   4.078 -0.3249  0.1969  0.0993
 2639PW      WP12852   9.920   9.261   4.165  0.0422  0.0786 -0.2141
 2639PW      WM12853   9.839   9.472   3.998  0.5844  0.3065 -0.2189
 2640PW       W12854   6.157   1.865   4.024 -0.4073  0.0645  0.2355
 2640PW      WP12855   6.071   1.904   3.921  0.1671  0.1535 -0.2369
 2640PW      WM12856   6.072   1.786   4.102 -0.3149 -0.0068  0.2649
 2641PW       W12857   1.127   8.898   2.397  0.3335  0.1177  0.0621
 2641PW      WP12858   1.115   8.809   2.504 -0.0207 -0.5606 -0.4977
 2641PW      WM12859   1.209   8.797   2.345  0.1837 -0.1019  0.2422
 2642PW       W12860   8.550  11.915   3.061 -0.2616 -0.0362  0.2096
 2642PW      WP12861   8.661  11.983   3.114 -0.0291 -0.2440  0.0010
 2642PW      WM12862   8.488  12.015   2.986  0.3840 -0.0863 -0.4410
 2643PW       W12863   1.879   5.901   5.140 -0.0212  0.1351 -0.2459
 2643PW      WP12864   1.799   5.954   5.038 -0.2219  0.2053 -0.0554
 2643PW      WM12865   1.982   5.969   5.206  0.1143 -0.2076 -0.0974
 2644PW       W12866  11.885   9.296   4.711 -0.2442 -0.1880  0.2533
 2644PW      WP12867  11.873   9.201   4.609  0.0356 -0.2564  0.2804
 2644PW      WM12868  11.870   9.433   4.736 -0.1247 -0.0392 -0.4006
 2645PW       W12869   9.954   2.046  10.578  0.0143 -0.2552 -0.2805
 2645PW      WP12870  10.020   2.085  10.695  0.3128  0.0900 -0.5514
 2645PW      WM12871  10.080   1.986  10.565  0.0473 -0.2637  0.0341
 2646PW       W12872   4.585   1.493   4.537  0.2216 -0.0161  0.1950
 2646PW      WP12873   4.472   1.554   4.593 -0.0189 -0.3817  0.1231
 2646PW      WM12874   4.677   1.536   4.635  0.2469 -0.0590  0.1898
 2647PW       W12875   1.206   1.559   0.075 -0.5371  0.2031  0.1040
 2647PW      WP12876   1.280   1.548   0.193  0.3419 -0.5086 -0.4444
 2647PW      WM12877   1.219   1.427   0.119 -0.5601  0.2212  0.1664
 2648PW       W12878   4.872   4.507   3.266 -0.1326 -0.4386 -0.5470
 2648PW      WP12879   4.892   4.591   3.155  0.2716  0.0098 -0.1562
 2648PW      WM12880   4.944   4.429   3.175  0.2615  0.3033 -0.9215
 2649PW       W12881  11.104   7.414  10.224  0.0174 -0.0872  0.2796
 2649PW      WP12882  11.161   7.483  10.331 -0.0834  0.0978  0.2168
 2649PW      WM12883  11.198   7.319  10.184 -0.1234 -0.2048  0.2227
 2650PW       W12884   3.227   8.418   4.478 -0.4250 -0.2157  0.1227
 2650PW      WP12885   3.279   8.307   4.410 -0.4746 -0.2170  0.0867
 2650PW      WM12886   3.140   8.481   4.388 -0.2858 -0.2108 -0.0111
 2651PW       W12887   1.730   4.096   3.216  0.0817  0.0101  0.1597
 2651PW      WP12888   1.846   4.089   3.295  0.1009 -0.0644  0.1250
 2651PW      WM12889   1.651   4.015   3.134  0.4002 -0.2071  0.0600
 2652PW       W12890   1.621  10.858   0.616 -0.1463  0.2518 -0.2413
 2652PW      WP12891   1.483  10.876   0.632 -0.0739  0.6449  0.0310
 2652PW      WM12892   1.694  10.767   0.693 -0.3939  0.1734 -0.0904
 2653PW       W12893   5.063   2.362   8.075 -0.2862  0.3660  0.1167
 2653PW      WP12894   5.036   2.225   8.066 -0.2248  0.3638 -0.0703
 2653PW      WM12895   5.100   2.423   8.195 -0.1901  0.0692  0.2441
 2654PW       W12896   5.832   7.412   2.997 -0.6958 -0.1241 -0.0016
 2654PW      WP12897   5.850   7.548   2.969  0.1959 -0.0968  0.5176
 2654PW      WM12898   5.840   7.282   2.947 -0.1264 -0.1283  0.0671
 2655PW       W12899  11.308   7.482   1.343  0.2706  0.2290  0.0748
 2655PW      WP12900  11.293   7.427   1.216 -0.3540  0.6361 -0.0466
 2655PW      WM12901  11.346   7.500   1.210 -0.1392 -0.3103 -0.1308
 2656PW       W12902   9.524   4.465  10.687 -0.1343 -0.6606  0.1758
 2656PW      WP12903   9.452   4.458  10.567  0.2382  0.0311 -0.1158
 2656PW      WM12904   9.400   4.485  10.748 -0.0479  0.6132  0.0629
 2657PW       W12905   5.181   3.948   9.611 -0.1888  0.2509  0.0908
 2657PW      WP12906   5.234   3.833   9.553 -0.9095 -0.0264 -0.0679
 2657PW      WM12907   5.206   4.039   9.508  0.2621  0.3965  0.3154
 2658PW       W12908   7.511   3.762  11.667  0.0565  0.5288  0.1239
 2658PW      WP12909   7.560   3.777  11.797 -0.0603 -0.0989  0.2571
 2658PW      WM12910   7.394   3.736  11.741 -0.1262 -0.0184 -0.3194
 2659PW       W12911   5.935   7.736   0.174  0.1592  0.2498 -0.0133
 2659PW      WP12912   5.844   7.842   0.167 -0.2589 -0.1061 -0.2612
 2659PW      WM12913   5.800   7.700   0.160  0.2298 -0.2011  0.3431
 2660PW       W12914   2.843   1.733  11.449 -0.0079  0.0551 -0.2341
 2660PW      WP12915   2.905   1.804  11.553  0.0492 -0.2190 -0.0767
 2660PW      WM12916   2.703   1.743  11.454  0.0144  0.3122  0.5458
 2661PW       W12917   5.376   0.145   3.765 -0.0580 -0.1814  0.8676
 2661PW      WP12918   5.309   0.268   3.765  0.0750 -0.1034  0.5752
 2661PW      WM12919   5.481   0.078   3.828  0.2299 -0.2417  0.3539
 2662PW       W12920   5.829   7.884   1.040  0.1561  0.0117  0.1626
 2662PW      WP12921   5.789   7.821   0.921  0.1503  0.0606  0.1382
 2662PW      WM12922   5.800   7.758   1.093 -0.1028 -0.0025 -0.0018
 2663PW       W12923   2.358   9.456   0.349 -0.2476  0.3829 -0.0237
 2663PW      WP12924   2.437   9.452   0.464  0.0859 -0.3796 -0.2515
 2663PW      WM12925   2.377   9.329   0.293 -0.1946  0.3569  0.0523
 2664PW       W12926   7.381   9.070   1.294  0.1863 -0.3028 -0.3210
 2664PW      WP12927   7.248   9.033   1.315  0.2929 -0.6236 -0.1761
 2664PW      WM12928   7.463   9.179   1.325 -0.2833  0.0150 -0.1525
 2665PW       W12929   1.939   4.656   0.067  0.0251  0.0589 -0.5995
 2665PW      WP12930   1.882   4.771   0.123  0.0929 -0.1433 -0.0909
 2665PW      WM12931   1.999   4.613   0.186 -0.4455  0.1571 -0.3166
 2666PW       W12932   9.627   6.010  10.852 -0.1739 -0.3168  0.1275
 2666PW      WP12933   9.637   5.888  10.785  0.3296 -0.2166  0.0004
 2666PW      WM12934   9.744   6.086  10.841 -0.2302 -0.1737  0.4450
 2667PW       W12935   5.533   2.452   2.010 -0.4484  0.4212 -0.0420
 2667PW      WP12936   5.413   2.426   1.942 -0.5241  0.1818  0.1739
 2667PW      WM12937   5.521   2.466   2.149  0.0934  0.5040  0.0050
 2668PW       W12938   0.346  10.684   1.843  0.1209  0.0859 -0.0086
 2668PW      WP12939   0.479  10.697   1.883  0.1455  0.1558 -0.1088
 2668PW      WM12940   0.267  10.680   1.727 -0.5184 -0.1286  0.4030
 2669PW       W12941   9.990   0.697   4.987  0.0112 -0.0433  0.2169
 2669PW      WP12942  10.077   0.587   4.989  0.0768 -0.0151 -0.3459
 2669PW      WM12943  10.100   0.764   5.041 -0.0380  0.1889  0.0346
 2670PW       W12944   4.850   6.560   2.571 -0.4102 -0.7114  0.0643
 2670PW      WP12945   4.929   6.581   2.685  0.1732 -0.3455 -0.3809
 2670PW      WM12946   4.895   6.538   2.441 -0.1441 -0.0507  0.0272
 2671PW       W12947   8.104   2.177   9.120 -0.2834  0.1094  0.2379
 2671PW      WP12948   8.199   2.111   9.199 -0.1057  0.0770  0.0019
 2671PW      WM12949   7.986   2.131   9.062 -0.3159  0.1691  0.2561
 2672PW       W12950   1.245   2.061   9.412  0.0468 -0.4138 -0.2926
 2672PW      WP12951   1.287   2.192   9.384 -0.5513 -0.2037 -0.2678
 2672PW      WM12952   1.122   2.128   9.410  0.0455 -0.3853  0.1603
 2673PW       W12953   5.414   2.936  13.192  0.3079  0.0712  0.2347
 2673PW      WP12954   5.464   3.010  13.084  0.2591  0.2790  0.3528
 2673PW      WM12955   5.362   2.832  13.269  0.3511  0.1326  0.3468
 2674PW       W12956   5.269   8.658   0.723  0.2525 -0.2976  0.1492
 2674PW      WP12957   5.406   8.682   0.713  0.2839 -0.5693 -0.1716
 2674PW      WM12958   5.197   8.776   0.700  0.0317 -0.4992 -0.2478
 2675PW       W12959  10.440   6.466   9.289  0.1859  0.3150  0.0878
 2675PW      WP12960  10.545   6.418   9.368 -0.0342  0.0058  0.2011
 2675PW      WM12961  10.344   6.365   9.275  0.1769  0.3396 -0.0344
 2676PW       W12962   5.057   8.840   9.684  0.1465 -0.3846  0.7485
 2676PW      WP12963   4.958   8.762   9.622 -0.0349  0.1753  0.2862
 2676PW      WM12964   5.100   8.954   9.752 -0.4066  0.4306 -0.1430
 2677PW       W12965   5.465   7.652  12.499  0.1192  0.3955  0.3080
 2677PW      WP12966   5.414   7.525  12.469 -0.2281  0.5670  0.1379
 2677PW      WM12967   5.563   7.726  12.566  0.2943  0.1841  0.2903
 2678PW       W12968   4.256   5.261  10.544 -0.0447  0.1350 -0.1923
 2678PW      WP12969   4.249   5.398  10.516 -0.8986  0.1384 -0.0954
 2678PW      WM12970   4.393   5.235  10.556 -0.1625 -0.4652  0.0143
 2679PW       W12971   5.216   1.797  10.256 -0.1289 -0.0062 -0.2012
 2679PW      WP12972   5.349   1.813  10.297 -0.2876  0.5805  0.1378
 2679PW      WM12973   5.102   1.720  10.232  0.0509 -0.2485 -0.2972
 2680PW       W12974   5.135   2.834  12.831 -0.4047  0.0222 -0.1953
 2680PW      WP12975   5.259   2.774  12.803 -0.3285  0.1176 -0.0657
 2680PW      WM12976   5.115   2.927  12.934 -0.4975 -0.2476  0.0337
 2681PW       W12977   7.219   4.560  12.265 -0.3236  0.4063 -0.4177
 2681PW      WP12978   7.215   4.539  12.127  0.1490  0.1359 -0.4009
 2681PW      WM12979   7.107   4.561  12.349 -0.1557 -0.0770 -0.1601
 2682PW       W12980   2.499   7.666   1.338  0.1823 -0.1212  0.3528
 2682PW      WP12981   2.506   7.527   1.333  0.5617 -0.0982 -0.2231
 2682PW      WM12982   2.416   7.723   1.435 -0.3946  0.0858 -0.2231
 2683PW       W12983   0.036  11.521   4.336 -0.1892  0.4531 -0.0417
 2683PW      WP12984   0.140  11.457   4.405 -0.4420  0.0024 -0.0576
 2683PW      WM12985  -0.095  11.518   4.386 -0.1082 -0.1958  0.1794
 2684PW       W12986   0.646   7.091  10.722  0.1202  0.0930 -0.1599
 2684PW      WP12987   0.622   6.998  10.824 -0.0667  0.3356  0.0236
 2684PW      WM12988   0.776   7.112  10.676  0.1795 -0.8645 -0.5323
 2685PW       W12989   2.561   1.705  11.038  0.5010  0.4586  0.1011
 2685PW      WP12990   2.626   1.664  11.155 -0.0356 -0.3451  0.1570
 2685PW      WM12991   2.548   1.632  10.919 -0.0897  0.0636  0.3857
 2686PW       W12992   3.232   9.244   9.305  0.3668 -0.4854 -0.0610
 2686PW      WP12993   3.251   9.121   9.370  0.0925 -0.3983  0.1984
 2686PW      WM12994   3.344   9.318   9.347 -0.2276  0.3226  0.2188
 2687PW       W12995   9.629   0.118   2.720 -0.2011  0.1097  0.2249
 2687PW      WP12996   9.613   0.134   2.582  0.8292  0.2138  0.0741
 2687PW      WM12997   9.726   0.022   2.691 -0.1894  0.2265 -0.1419
 2688PW       W12998   8.188   9.153   0.369 -0.2691  0.0493 -0.2109
 2688PW      WP12999   8.286   9.054   0.382 -0.0268  0.2474 -0.4813
 2688PW      WM13000   8.145   9.089   0.486  0.2785 -0.6284 -0.3490
 2689PW       W13001   8.650  11.067   3.458  0.2567 -0.0100 -0.0824
 2689PW      WP13002   8.629  10.932   3.425  0.6849 -0.1941  0.3345
 2689PW      WM13003   8.607  11.140   3.569 -0.3049 -0.2822 -0.1019
 2690PW       W13004  11.740   9.127   2.467 -0.2653 -0.6135 -0.1202
 2690PW      WP13005  11.719   9.217   2.362  0.0303 -0.0115  0.3062
 2690PW      WM13006  11.845   9.044   2.507 -0.0637 -0.1593  0.3428
 2691PW       W13007  10.764   9.423  10.793  0.1574  0.1577  0.2693
 2691PW      WP13008  10.649   9.465  10.724  0.1318 -0.4493 -0.0895
 2691PW      WM13009  10.630   9.435  10.832 -0.1102  0.0669 -0.5349
 2692PW       W13010   8.250   2.058   5.152  0.3793 -0.3450 -0.1501
 2692PW      WP13011   8.327   1.954   5.098  0.3422 -0.2262 -0.4404
 2692PW      WM13012   8.237   2.017   5.285  0.0881  0.0971 -0.0304
 2693PW       W13013   9.552   2.867   0.236 -0.5819 -0.4199 -0.4244
 2693PW      WP13014   9.653   2.770   0.239 -0.0489  0.1060  0.3336
 2693PW      WM13015   9.462   2.877   0.343  0.1716  0.0900  0.2145
 2694PW       W13016  10.236   9.619   1.815 -0.0990 -0.0102 -0.1054
 2694PW      WP13017  10.128   9.535   1.788 -0.7996  0.6469  0.4347
 2694PW      WM13018  10.327   9.665   1.720 -0.1039  0.5205  0.1302
 2695PW       W13019   0.937   4.769   1.026  0.1877  0.1491 -0.0693
 2695PW      WP13020   1.066   4.747   1.076  0.0878  0.0557  0.1544
 2695PW      WM13021   0.923   4.660   1.113 -0.0960  0.3091  0.0968
 2696PW       W13022  11.125   6.200   9.883 -0.4129 -0.1499  0.0936
 2696PW      WP13023  11.222   6.121   9.947 -0.1601  0.0583 -0.0214
 2696PW      WM13024  11.064   6.242   9.764  0.4869 -0.2737 -0.4684
 2697PW       W13025  10.234   3.477  10.356 -0.1850  0.1806  0.5621
 2697PW      WP13026  10.271   3.540  10.475 -0.1882 -0.0710  0.7000
 2697PW      WM13027  10.111   3.411  10.368 -0.2422  0.2037  0.1761
 2698PW       W13028  11.986   3.614  13.327  0.0987 -0.0401 -0.0257
 2698PW      WP13029  12.047   3.510  13.398  0.2769  0.1369  0.0860
 2698PW      WM13030  12.002   3.572  13.195 -0.1935  0.0528 -0.0939
 2699PW       W13031  11.427   3.215   4.438  0.2387  0.3202  0.1149
 2699PW      WP13032  11.337   3.120   4.487 -0.0939  0.2495 -0.5654
 2699PW      WM13033  11.454   3.122   4.337  0.0888  0.6532 -0.2442
 2700PW       W13034   7.707   3.870  12.062 -0.0614 -0.0012  0.1783
 2700PW      WP13035   7.828   3.877  12.132  0.3042  0.3910 -0.4430
 2700PW      WM13036   7.668   3.896  11.930 -0.2087  0.3957  0.2922
 2701PW       W13037   1.329   6.332   0.982 -0.1118  0.0516  0.0298
 2701PW      WP13038   1.219   6.295   0.904  0.1589  0.5725 -0.6539
 2701PW      WM13039   1.386   6.444   0.922 -0.0192 -0.0990 -0.1674
 2702PW       W13040   4.538   3.661  10.453  0.0162 -0.3243  0.1493
 2702PW      WP13041   4.572   3.610  10.327  0.2043  0.0904  0.0235
 2702PW      WM13042   4.635   3.743  10.511 -0.4276  0.2681  0.1025
 2703PW       W13043   0.118  12.078   3.092 -0.1266 -0.2546 -0.0225
 2703PW      WP13044   0.031  11.977   3.049 -0.3211 -0.0287 -0.1741
 2703PW      WM13045   0.211  12.061   3.196  0.2379 -0.4422 -0.3653
 2704PW       W13046   7.446   4.979  11.349 -0.6729  0.4167 -0.1899
 2704PW      WP13047   7.425   4.938  11.217  0.0112 -0.3132 -0.1100
 2704PW      WM13048   7.553   5.039  11.283  0.0163 -0.5937 -0.1056
 2705PW       W13049   2.368  10.580   4.256  0.0680 -0.1664 -0.3806
 2705PW      WP13050   2.472  10.667   4.292 -0.3368  0.2869 -0.2475
 2705PW      WM13051   2.235  10.605   4.291  0.1578 -0.4859  0.2511
 2706PW       W13052   8.632   5.486   4.968 -0.4684  0.0293  0.0140
 2706PW      WP13053   8.647   5.441   5.100  0.1884  0.0638 -0.0291
 2706PW      WM13054   8.493   5.481   4.956 -0.4602 -0.0817 -0.0443
 2707PW       W13055   2.721   6.573  11.790  0.0458 -0.0093 -0.3777
 2707PW      WP13056   2.823   6.614  11.702  0.0045 -0.1468 -0.4915
 2707PW      WM13057   2.663   6.497  11.892  0.3568  0.0772 -0.1280
 2708PW       W13058   2.849   0.967   3.282  0.0221  0.2383  0.1160
 2708PW      WP13059   2.904   1.077   3.216  0.5068 -0.3248 -0.4897
 2708PW      WM13060   2.828   0.864   3.189  0.4554  0.1368  0.1208
 2709PW       W13061  11.127   9.303   4.927  0.0697 -0.0682 -0.3111
 2709PW      WP13062  11.204   9.189   4.900 -0.0133 -0.1299 -0.2883
 2709PW      WM13063  11.205   9.386   4.845 -0.1697  0.3236 -0.1548
 2710PW       W13064  10.376   2.039  12.922  0.1130  0.2722  0.0871
 2710PW      WP13065  10.268   2.055  12.834  0.0094 -0.1158  0.1361
 2710PW      WM13066  10.303   2.048  13.041 -0.0709  0.1619 -0.0155
 2711PW       W13067  11.200   9.895   3.856  0.0059 -0.3587  0.1324
 2711PW      WP13068  11.083   9.846   3.797 -0.0572 -0.0258 -0.0315
 2711PW      WM13069  11.143   9.889   3.983  0.0459  0.5670  0.2307
 2712PW       W13070   7.045  11.480   8.660 -0.1122  0.6137  0.1875
 2712PW      WP13071   7.082  11.463   8.526  0.3465  0.2640  0.3443
 2712PW      WM13072   7.166  11.533   8.709  0.4489 -0.0091 -0.4175
 2713PW       W13073   5.175   7.449   2.271  0.0167 -0.2213  0.3729
 2713PW      WP13074   5.137   7.491   2.399  0.0347 -0.4018  0.4398
 2713PW      WM13075   5.159   7.570   2.340 -0.6409  0.0084 -0.1333
 2714PW       W13076   2.034   3.658   8.319 -0.1322 -0.5873  0.2498
 2714PW      WP13077   2.138   3.677   8.411  0.0338  0.3265 -0.0748
 2714PW      WM13078   1.921   3.720   8.374  0.1157  0.0169  0.1166
 2715PW       W13079   6.977   7.697   1.290  0.1544  0.0841  0.3967
 2715PW      WP13080   6.938   7.807   1.368  0.4674  0.1258  0.5016
 2715PW      WM13081   7.012   7.576   1.352 -0.4220 -0.2250  0.1579
 2716PW       W13082   4.306   0.137   9.030 -0.1236 -0.0401  0.3528
 2716PW      WP13083   4.243   0.181   8.913  0.3103 -0.3436 -0.0150
 2716PW      WM13084   4.402   0.047   8.980  0.2147  0.3783  0.2174
 2717PW       W13085  11.304  12.020  11.706 -0.6878 -0.3554 -0.1333
 2717PW      WP13086  11.336  12.121  11.613  0.1021  0.1058  0.5700
 2717PW      WM13087  11.346  11.891  11.737  0.0509 -0.0526  0.2503
 2718PW       W13088   5.104  10.697  10.585  0.1243  0.1005  0.2057
 2718PW      WP13089   5.206  10.604  10.565 -0.5029 -0.5373 -0.2596
 2718PW      WM13090   5.000  10.673  10.675  0.2845  0.0785  0.3897
 2719PW       W13091   9.662   4.954   1.259 -0.4787 -0.1865 -0.0745
 2719PW      WP13092   9.547   4.985   1.333 -0.3411  0.1157  0.0207
 2719PW      WM13093   9.781   4.985   1.327 -0.3338 -0.1449 -0.3432
 2720PW       W13094   4.951   4.536  10.993  0.3640 -0.0708 -0.0757
 2720PW      WP13095   5.004   4.529  11.123  0.0380 -0.2064  0.0547
 2720PW      WM13096   4.832   4.462  11.004  0.4108 -0.1598 -0.1591
 2721PW       W13097   5.595   1.045   3.871 -0.0893  0.2528  0.7713
 2721PW      WP13098   5.491   1.086   3.788  0.1839  0.1890  0.3843
 2721PW      WM13099   5.661   0.951   3.952  0.3440 -0.2498 -0.0938
 2722PW       W13100   6.133  10.505   1.605 -0.1489  0.3433 -0.0101
 2722PW      WP13101   6.142  10.414   1.711 -0.1971  0.5302  0.1568
 2722PW      WM13102   6.105  10.512   1.468  0.1302  0.2134 -0.0770
 2723PW       W13103   3.174  11.310   1.060 -0.1656 -0.0090  0.3460
 2723PW      WP13104   3.211  11.379   1.177  0.4069  0.0895  0.1219
 2723PW      WM13105   3.141  11.202   0.978 -0.0755 -0.1803  0.5313
 2724PW       W13106  10.084  11.139  11.442 -0.0191 -0.0218  0.0160
 2724PW      WP13107  10.086  11.277  11.466 -0.1153  0.0372 -0.2933
 2724PW      WM13108   9.961  11.076  11.463 -0.0904  0.2159  0.3491
 2725PW       W13109   8.585   0.347   1.755  0.4679 -0.5206 -0.6395
 2725PW      WP13110   8.557   0.379   1.622  0.2833  0.1313 -0.4624
 2725PW      WM13111   8.653   0.469   1.764 -0.6120  0.1215 -0.2269
 2726PW       W13112   6.421  11.380  13.309  0.1738 -0.1381 -0.0317
 2726PW      WP13113   6.514  11.447  13.229  0.1001 -0.0511 -0.0459
 2726PW      WM13114   6.488  11.373  13.432  0.2810  0.6921 -0.0168
 2727PW       W13115   1.345   4.290  10.443 -0.4070 -0.1033  0.1126
 2727PW      WP13116   1.319   4.321  10.577  0.3274  0.6640  0.1185
 2727PW      WM13117   1.246   4.216  10.377 -0.1939 -0.5280  0.2493
 2728PW       W13118   8.244  10.472   8.268  0.0300 -0.1778  0.3154
 2728PW      WP13119   8.285  10.409   8.150 -0.2443  0.1573  0.0281
 2728PW      WM13120   8.380  10.484   8.235  0.0893  0.1310  0.6362
 2729PW       W13121   8.854   3.342   4.483 -0.3045  0.1283  0.2613
 2729PW      WP13122   8.975   3.281   4.517 -0.5515 -0.6796 -0.1805
 2729PW      WM13123   8.818   3.208   4.465  0.5827 -0.0927 -0.1982
 2730PW       W13124  10.693   2.160   2.822 -0.1367  0.1758  0.1863
 2730PW      WP13125  10.697   2.023   2.793 -0.1701  0.2223 -0.0472
 2730PW      WM13126  10.709   2.094   2.945  0.1226 -0.1490 -0.0152
 2731PW       W13127   6.298   0.489   1.558  0.1220 -0.0901  0.5182
 2731PW      WP13128   6.351   0.438   1.677  0.5013 -0.0401  0.3777
 2731PW      WM13129   6.183   0.570   1.555 -0.2422 -0.5791  0.6260
 2732PW       W13130   5.592   5.615  10.060  0.0255 -0.0905  0.0457
 2732PW      WP13131   5.600   5.747  10.109  0.4865 -0.1866  0.2558
 2732PW      WM13132   5.479   5.683  10.012 -0.1354 -0.4997 -0.1775
 2733PW       W13133  10.602   5.048   3.080  0.3203  0.2731 -0.0799
 2733PW      WP13134  10.561   4.938   3.004  0.2271  0.3187 -0.0965
 2733PW      WM13135  10.481   5.114   3.101  0.3215  0.1970  0.1884
 2734PW       W13136   9.773  12.049  12.381  0.1514  0.0245  0.1157
 2734PW      WP13137   9.873  12.138  12.422  0.0418  0.2168 -0.0315
 2734PW      WM13138   9.813  11.945  12.466  0.0044  0.0413  0.2065
 2735PW       W13139   6.799   0.351   4.438 -0.2910 -0.0283 -0.1057
 2735PW      WP13140   6.817   0.483   4.397 -0.1554  0.2154  0.6546
 2735PW      WM13141   6.841   0.222   4.404 -0.2758 -0.0971  0.1582
 2736PW       W13142  11.322   0.971   3.561 -0.3440 -0.1324 -0.2055
 2736PW      WP13143  11.206   0.926   3.625 -0.2266  0.5320  0.5392
 2736PW      WM13144  11.280   1.075   3.477 -0.3585 -0.0613 -0.1098
 2737PW       W13145   5.798   4.250   8.871  0.2557  0.1441  0.2446
 2737PW      WP13146   5.811   4.379   8.923  0.2742  0.2253  0.0436
 2737PW      WM13147   5.674   4.186   8.876  0.3559 -0.1055 -0.1587
 2738PW       W13148   8.072   0.321   2.047 -0.4936 -0.2001  0.0338
 2738PW      WP13149   8.185   0.270   2.111 -0.3239  0.0235 -0.0813
 2738PW      WM13150   8.159   0.414   1.988 -0.3755 -0.1348  0.3058
 2739PW       W13151   4.009   8.642   9.934  0.0699 -0.1930  0.0015
 2739PW      WP13152   3.878   8.594   9.931 -0.1610  0.4062 -0.1427
 2739PW      WM13153   4.052   8.554  10.034  0.1557 -0.0521  0.0900
 2740PW       W13154   2.882   5.086   4.240  0.5320  0.0140 -0.1696
 2740PW      WP13155   2.872   5.125   4.373  0.5091  0.2708 -0.2450
 2740PW      WM13156   2.901   5.214   4.187  0.2629 -0.0206 -0.3638
 2741PW       W13157   2.938   1.825   0.819 -0.1613  0.6856 -0.4136
 2741PW      WP13158   2.916   1.816   0.681 -0.1381 -0.2815 -0.3901
 2741PW      WM13159   2.995   1.778   0.938 -0.5437 -0.2117 -0.5441
 2742PW       W13160   4.052   6.722   3.313  0.5201 -0.1594  0.0925
 2742PW      WP13161   4.005   6.591   3.304 -0.2211  0.1089 -0.4173
 2742PW      WM13162   4.061   6.808   3.203  0.2252 -0.2376  0.0028
 2743PW       W13163   0.851   8.745  11.216  0.1996  0.3710  0.0575
 2743PW      WP13164   0.745   8.806  11.283 -0.2034 -0.0757 -0.1436
 2743PW      WM13165   0.892   8.614  11.245  0.3549  0.4860  0.3913
 2744PW       W13166   0.845   2.812   8.987  0.3623  0.0833 -0.0092
 2744PW      WP13167   0.944   2.714   8.991  0.6492  0.3664  0.8014
 2744PW      WM13168   0.859   2.863   8.857 -0.3663 -0.2661 -0.2521
 2745PW       W13169   9.433   1.924   0.643  0.2280 -0.4835 -0.0440
 2745PW      WP13170   9.371   2.049   0.637  0.0292 -0.5878 -0.2719
 2745PW      WM13171   9.563   1.966   0.614  0.0298  0.1702 -0.0619
 2746PW       W13172   2.221   7.452   2.170 -0.4785 -0.1295 -0.2253
 2746PW      WP13173   2.235   7.541   2.062 -0.0252 -0.1367 -0.1807
 2746PW      WM13174   2.270   7.445   2.300  0.0147 -0.3880 -0.4122
 2747PW       W13175   1.484  10.714   1.587 -0.0839  0.1974 -0.0080
 2747PW      WP13176   1.505  10.834   1.516 -0.2894  0.2115 -0.0492
 2747PW      WM13177   1.597  10.637   1.559 -0.4431 -0.3463 -0.0416
 2748PW       W13178   1.355   8.483   5.368  0.1965  0.3901 -0.4570
 2748PW      WP13179   1.257   8.582   5.357 -0.1369  0.1362  0.0317
 2748PW      WM13180   1.411   8.391   5.279 -0.2787 -0.1283 -0.2495
 2749PW       W13181   1.610   6.423   8.497  0.0513  0.1163  0.0494
 2749PW      WP13182   1.522   6.531   8.498 -0.1618 -0.0516 -0.0543
 2749PW      WM13183   1.733   6.375   8.545 -0.0071 -0.1403 -0.0456
 2750PW       W13184  10.266  10.342   0.109  0.2423  0.4246  0.1723
 2750PW      WP13185  10.212  10.419   0.005  0.6129  0.6058  0.1071
 2750PW      WM13186  10.295  10.206   0.101 -0.2935  0.3028  0.0502
 2751PW       W13187   5.908   6.018   1.085 -0.0130 -0.1788 -0.0757
 2751PW      WP13188   5.904   5.879   1.092 -0.6877 -0.1618  0.4776
 2751PW      WM13189   5.815   6.032   0.981 -0.0192  0.1369 -0.0345
 2752PW       W13190  11.076  10.018   0.364 -0.2021 -0.0675  0.1957
 2752PW      WP13191  11.201  10.055   0.416 -0.0607 -0.0113 -0.1662
 2752PW      WM13192  10.979   9.960   0.446 -0.6996  0.1255 -0.2272
 2753PW       W13193   2.889   8.619   8.613  0.0153 -0.0872  0.3525
 2753PW      WP13194   2.957   8.739   8.589  0.2049 -0.2547  0.0174
 2753PW      WM13195   2.825   8.676   8.724  0.0404  0.2369  0.2063
 2754PW       W13196  11.356   5.264  10.026  0.3334  0.0326 -0.4350
 2754PW      WP13197  11.442   5.271  10.136 -0.3376 -0.7359  0.2070
 2754PW      WM13198  11.216   5.267  10.033  0.3444  0.2632 -0.2330
 2755PW       W13199   8.982   9.707  11.465 -0.0376  0.2105 -0.4190
 2755PW      WP13200   9.102   9.779  11.470  0.2063 -0.1938 -0.2713
 2755PW      WM13201   8.970   9.749  11.599  0.1533 -0.2680 -0.2436
 2756PW       W13202   1.801   8.084  11.796  0.3113  0.0386 -0.3180
 2756PW      WP13203   1.706   7.990  11.754  0.3154 -0.2473  0.2671
 2756PW      WM13204   1.736   8.102  11.674  0.2003 -0.3452 -0.3208
 2757PW       W13205   5.628   5.574  10.914 -0.0850 -0.1115 -0.0671
 2757PW      WP13206   5.750   5.641  10.898 -0.6432  0.9362 -0.4666
 2757PW      WM13207   5.586   5.513  11.033  0.1255  0.1896  0.1701
 2758PW       W13208   5.229  11.294  -0.009 -0.5833 -0.1705  0.3594
 2758PW      WP13209   5.119  11.372  -0.048 -0.4008 -0.0665  0.0389
 2758PW      WM13210   5.197  11.360   0.111 -0.5950  0.1963  0.1605
 2759PW       W13211   8.712   8.669   3.855 -0.4805  0.0835  0.0547
 2759PW      WP13212   8.719   8.718   3.724  0.2331 -0.1854 -0.0282
 2759PW      WM13213   8.693   8.728   3.981 -0.1837  0.2097  0.0439
 2760PW       W13214   6.512   7.139   8.871  0.3788 -0.0143 -0.1353
 2760PW      WP13215   6.465   7.245   8.949  0.2115 -0.2368  0.0738
 2760PW      WM13216   6.595   7.027   8.855  0.0919 -0.2416 -0.0652
 2761PW       W13217   0.494  10.304  10.524  0.1359  0.1007  0.0338
 2761PW      WP13218   0.551  10.402  10.606 -0.1026  0.3836 -0.1271
 2761PW      WM13219   0.391  10.366  10.452  0.2095  0.2126  0.0232
 2762PW       W13220   5.587   0.889   1.535  0.2428  0.0288  0.1263
 2762PW      WP13221   5.701   0.915   1.457  0.4904  0.0219  0.4745
 2762PW      WM13222   5.501   0.836   1.439  0.2168 -0.2261  0.2860
 2763PW       W13223   6.915   0.837   4.244 -0.1048  0.1138 -0.1309
 2763PW      WP13224   7.055   0.836   4.241 -0.1037 -0.2963 -0.1990
 2763PW      WM13225   6.944   0.725   4.165 -0.3522 -0.0111 -0.0481
 2764PW       W13226  12.016  10.708   3.393  0.1018 -0.1631  0.2130
 2764PW      WP13227  11.996  10.799   3.498  0.1373 -0.2217  0.2702
 2764PW      WM13228  11.970  10.581   3.429 -0.2698  0.0062  0.3709
 2765PW       W13229   0.269   9.010   3.055 -0.1199  0.1019  0.7397
 2765PW      WP13230   0.195   9.118   3.006  0.0700 -0.1991 -0.3489
 2765PW      WM13231   0.387   9.038   3.124  0.1498  0.6069  0.1233
 2766PW       W13232   6.436   9.970   0.414  0.1609 -0.0558  0.4226
 2766PW      WP13233   6.390  10.015   0.289  0.0038 -0.0575  0.4791
 2766PW      WM13234   6.392   9.837   0.420 -0.1320  0.0027 -0.0854
 2767PW       W13235  11.159   7.362   2.219  0.5631  0.0222  0.5668
 2767PW      WP13236  11.021   7.367   2.244  0.3884  0.2092 -0.2827
 2767PW      WM13237  11.162   7.222   2.216  0.1547  0.0086  0.3538
 2768PW       W13238   9.015  10.004   8.651 -0.0012 -0.1002 -0.1890
 2768PW      WP13239   9.072   9.962   8.530  0.3749  0.2436 -0.1435
 2768PW      WM13240   8.941   9.892   8.610 -0.2667 -0.1452  0.3730
 2769PW       W13241   2.603   6.346  12.169  0.1153 -0.0810  0.0247
 2769PW      WP13242   2.688   6.430  12.096  0.0741  0.0144  0.0853
 2769PW      WM13243   2.658   6.307  12.292  0.1088 -0.1282  0.0127
 2770PW       W13244   6.221   4.350   4.101 -0.2933  0.0041 -0.2386
 2770PW      WP13245   6.178   4.476   4.143 -0.2600 -0.0501 -0.0383
 2770PW      WM13246   6.283   4.287   3.993 -0.0791  0.0118 -0.1218
 2771PW       W13247  10.053   6.491  11.486 -0.0340  0.1444 -0.2257
 2771PW      WP13248   9.952   6.539  11.571  0.1452  0.0451  0.0527
 2771PW      WM13249   9.922   6.443  11.482 -0.1331  0.3612  0.1687
 2772PW       W13250   0.374   8.600   1.586  0.0930  0.5112  0.0780
 2772PW      WP13251   0.476   8.678   1.530 -0.1809  0.3886 -0.6480
 2772PW      WM13252   0.427   8.568   1.460 -0.3668  0.0152 -0.0087
 2773PW       W13253  11.696   5.127   9.722 -0.0564 -0.1096  0.5485
 2773PW      WP13254  11.717   5.031   9.624  0.0132  0.0702  0.3843
 2773PW      WM13255  11.809   5.191   9.775  0.0365  0.1597  0.0562
 2774PW       W13256   9.702  10.546  11.316  0.1482  0.4624  0.3436
 2774PW      WP13257   9.631  10.508  11.430 -0.1947 -0.3246 -0.0863
 2774PW      WM13258   9.604  10.524  11.218  0.1541 -0.1441  0.4519
 2775PW       W13259   8.750   7.937   3.337 -0.6370  0.0842 -0.0457
 2775PW      WP13260   8.637   7.863   3.376 -0.3795 -0.3857 -0.1466
 2775PW      WM13261   8.797   7.859   3.231 -0.0447 -0.0077  0.2673
 2776PW       W13262   0.581   8.001  11.440 -0.3209  0.2324  0.3329
 2776PW      WP13263   0.545   8.121  11.503  0.1687  0.3813  0.3464
 2776PW      WM13264   0.499   7.891  11.466 -0.1073 -0.0568 -0.1504
 2777PW       W13265   4.636   6.983  10.046  0.5019  0.1950 -0.3470
 2777PW      WP13266   4.508   6.931  10.023  0.1892  0.6254  0.2653
 2777PW      WM13267   4.665   7.063   9.935  0.0512  0.4694 -0.2820
 2778PW       W13268  11.239   6.823   0.412 -0.0299  0.2326 -0.3969
 2778PW      WP13269  11.170   6.701   0.407  0.1871  0.0972 -0.1428
 2778PW      WM13270  11.135   6.860   0.325 -0.5061  0.2624  0.1524
 2779PW       W13271  10.732   9.484   1.963  0.2494  0.0259 -0.0716
 2779PW      WP13272  10.613   9.467   1.891  0.1247  0.0200  0.1333
 2779PW      WM13273  10.655   9.591   2.010  0.7981  0.5864 -0.3668
 2780PW       W13274   0.441   5.249   2.095  0.0696 -0.0353  0.0559
 2780PW      WP13275   0.509   5.358   2.039 -0.1468  0.1135  0.0799
 2780PW      WM13276   0.571   5.249   2.043  0.0955 -0.0405  0.1194
 2781PW       W13277  11.468  11.115   0.883  0.2313  0.0049  0.0018
 2781PW      WP13278  11.406  11.014   0.958  0.1120  0.0721 -0.0064
 2781PW      WM13279  11.511  11.206   0.980 -0.1508  0.2462 -0.0435
 2782PW       W13280   4.381   1.303  11.707 -0.3848  0.3372 -0.2420
 2782PW      WP13281   4.396   1.429  11.765 -0.5753 -0.0297  0.6993
 2782PW      WM13282   4.300   1.306  11.593 -0.3144 -0.4492 -0.3407
 2783PW       W13283   8.792  -0.023  12.735 -0.2806 -0.3018 -0.0892
 2783PW      WP13284   8.692  -0.068  12.821  0.0427 -0.7967  0.0524
 2783PW      WM13285   8.746   0.109  12.732 -0.2622 -0.2965 -0.1472
 2784PW       W13286   1.429  10.160   1.559  0.2049 -0.3709 -0.6151
 2784PW      WP13287   1.473  10.289   1.527 -0.3306  0.0069  0.0403
 2784PW      WM13288   1.313  10.219   1.508 -0.0763 -0.2785  0.0744
 2785PW       W13289   6.508  10.446  11.820  0.2346  0.1586 -0.1801
 2785PW      WP13290   6.436  10.565  11.834  0.0056 -0.0053  0.0902
 2785PW      WM13291   6.563  10.485  11.943  0.3636 -0.0005 -0.1850
 2786PW       W13292   8.881   6.024  12.191  0.5105 -0.6176  0.2749
 2786PW      WP13293   8.844   5.950  12.078 -0.0198  0.1440 -0.1016
 2786PW      WM13294   8.879   5.989  12.326 -0.1328  0.2858  0.5496
 2787PW       W13295   8.746   0.148   9.662 -0.1697  0.2989 -0.2730
 2787PW      WP13296   8.799   0.019   9.674 -0.4087  0.2176 -0.0036
 2787PW      WM13297   8.797   0.206   9.778  0.1594 -0.2056 -0.1485
 2788PW       W13298  11.947   9.487   1.450  0.0125 -0.0137 -0.1025
 2788PW      WP13299  11.813   9.451   1.427 -0.0025 -0.1410  0.1583
 2788PW      WM13300  11.958   9.578   1.557 -0.2302 -0.1999  0.0886
 2789PW       W13301   6.193  10.519  12.179 -0.1552  0.0875  0.3578
 2789PW      WP13302   6.132  10.444  12.078  0.4543  0.1979 -0.1198
 2789PW      WM13303   6.253  10.638  12.137  0.0080 -0.1584 -0.1518
 2790PW       W13304   7.331   1.591   9.960 -0.1006 -0.4051 -0.2555
 2790PW      WP13305   7.294   1.725   9.943 -0.3126 -0.4223  0.0201
 2790PW      WM13306   7.410   1.631  10.069  0.0924 -0.2195 -0.4595
 2791PW       W13307   0.030   0.783   8.229  0.1558 -0.1948  0.1268
 2791PW      WP13308   0.020   0.875   8.335  0.3315 -0.0465  0.0183
 2791PW      WM13309   0.153   0.808   8.169 -0.0410  0.0862 -0.1789
 2792PW       W13310   8.744  11.303   0.307  0.4968 -0.0051 -0.2295
 2792PW      WP13311   8.856  11.219   0.303  0.6031  0.1325 -0.1937
 2792PW      WM13312   8.666  11.416   0.282 -0.2337 -0.3322  0.3723
 2793PW       W13313   7.659   2.417   0.659 -0.1356 -0.2928 -0.0064
 2793PW      WP13314   7.606   2.516   0.742  0.4160 -0.1203  0.1625
 2793PW      WM13315   7.715   2.453   0.536 -0.4692  0.1204 -0.0452
 2794PW       W13316   5.488  11.709  10.328 -0.2287  0.1900  0.0167
 2794PW      WP13317   5.437  11.704  10.458  0.4875  0.2360  0.3197
 2794PW      WM13318   5.443  11.618  10.231  0.3971  0.0854 -0.1976
 2795PW       W13319   2.964   7.927   2.862  0.0185  0.0442  0.1279
 2795PW      WP13320   2.912   7.805   2.910  0.4999 -0.3178 -0.2189
 2795PW      WM13321   2.947   8.003   2.978  0.0134  0.3012 -0.0384
 2796PW       W13322   3.227   7.079   0.594  0.2769  0.4640 -0.1311
 2796PW      WP13323   3.173   7.086   0.723  0.0829  0.5580 -0.2153
 2796PW      WM13324   3.326   7.044   0.686  0.0752  0.0162 -0.0687
 2797PW       W13325   3.890   2.394   5.673 -0.2544  0.1921 -0.0242
 2797PW      WP13326   3.859   2.325   5.555 -0.2171 -0.5594  0.3740
 2797PW      WM13327   3.911   2.512   5.600  0.2976  0.2974  0.2789
 2798PW       W13328  10.353   4.490   4.572 -0.1236 -0.2225 -0.2266
 2798PW      WP13329  10.354   4.526   4.707 -0.0135 -0.3470 -0.1941
 2798PW      WM13330  10.488   4.456   4.562 -0.0380 -0.0102  0.1190
 2799PW       W13331   6.744  11.114   0.205  0.1212 -0.5319 -0.4358
 2799PW      WP13332   6.681  11.222   0.143  0.3279 -0.1555 -0.0224
 2799PW      WM13333   6.775  11.019   0.303  0.1987  0.0880  0.1794
 2800PW       W13334   6.249   1.944  10.327 -0.5181  0.1557  0.5119
 2800PW      WP13335   6.210   1.811  10.348 -0.2137 -0.0711 -0.2068
 2800PW      WM13336   6.366   1.936  10.403 -0.0696 -0.1956 -0.1718
 2801PW       W13337   5.197   1.215   8.112 -0.0684  0.2953 -0.1169
 2801PW      WP13338   5.259   1.263   7.996  0.1420  0.1236 -0.0778
 2801PW      WM13339   5.203   1.282   8.235 -0.2770  0.1011  0.0005
 2802PW       W13340   7.293   9.051   4.796  0.0042 -0.2910  0.2180
 2802PW      WP13341   7.351   9.034   4.669 -0.0417  0.1387  0.1326
 2802PW      WM13342   7.207   9.123   4.713 -0.1107 -0.1159  0.4823
 2803PW       W13343   8.111   7.448  10.967 -0.1101 -0.1093 -0.6045
 2803PW      WP13344   8.236   7.453  11.030 -0.2237 -0.0483 -0.3790
 2803PW      WM13345   7.997   7.398  11.032  0.1814 -0.0593 -0.0154
 2804PW       W13346   7.502  11.557   9.446  0.2784  0.1070  0.0366
 2804PW      WP13347   7.640  11.579   9.445  0.2642  0.1969 -0.1703
 2804PW      WM13348   7.455  11.454   9.529  0.5333 -0.0935 -0.0609
 2805PW       W13349   7.689  10.745   3.943 -0.1977 -0.4199  0.0359
 2805PW      WP13350   7.565  10.686   3.969 -0.3362 -0.0148  0.3333
 2805PW      WM13351   7.772  10.675   4.032  0.4402  0.1189 -0.0972
 2806PW       W13352   8.032  11.858   9.869 -0.1892  0.4020 -0.2976
 2806PW      WP13353   8.073  11.807   9.745  0.1067 -0.1622  0.0138
 2806PW      WM13354   8.154  11.923   9.849  0.1247 -0.2178 -0.5514
 2807PW       W13355   8.231  10.670   8.803 -0.2676  0.1524  0.2047
 2807PW      WP13356   8.200  10.796   8.854  0.2794  0.4956 -0.2529
 2807PW      WM13357   8.366  10.699   8.826 -0.0814 -0.3952 -0.0937
 2808PW       W13358  10.748   5.127  10.426 -0.2159 -0.0543  0.1367
 2808PW      WP13359  10.693   5.029  10.510  0.2585 -0.3867  0.0820
 2808PW      WM13360  10.775   5.200  10.542 -0.3752 -0.1767  0.2525
 2809PW       W13361   9.775   1.394   2.949  0.1128  0.0349  0.1119
 2809PW      WP13362   9.783   1.391   2.809  0.2388 -0.0845  0.1216
 2809PW      WM13363   9.754   1.525   2.996  0.2060  0.3546 -0.6599
 2810PW       W13364   5.439   8.214   1.443 -0.1269  0.1625 -0.1978
 2810PW      WP13365   5.307   8.258   1.455 -0.1313  0.1742 -0.2833
 2810PW      WM13366   5.495   8.262   1.323 -0.1691 -0.2901 -0.4100
 2811PW       W13367   1.326   8.767  10.239  0.2551  0.3006  0.1832
 2811PW      WP13368   1.205   8.743  10.306  0.3589 -0.4816  0.1353
 2811PW      WM13369   1.338   8.873  10.149 -0.0598  0.1791 -0.0096
 2812PW       W13370   7.932   1.082   3.274 -0.1839  0.3055 -0.2540
 2812PW      WP13371   7.940   1.215   3.318  0.2997 -0.0746  1.0472
 2812PW      WM13372   7.889   1.035   3.398  0.5861  0.2532  0.0201
 2813PW       W13373   1.130  10.054   3.722  0.0533 -0.0521 -0.8923
 2813PW      WP13374   1.130  10.185   3.673  0.1339  0.0824 -0.5511
 2813PW      WM13375   1.227  10.143   3.771 -0.3755  0.0330 -0.1061
 2814PW       W13376   6.976  10.766  13.225  0.3820 -0.2687  0.2020
 2814PW      WP13377   6.838  10.745  13.237  0.3141  0.0895  0.1106
 2814PW      WM13378   6.947  10.629  13.227 -0.1088 -0.2165 -0.6167
 2815PW       W13379   0.239   5.459   4.683 -0.7194  0.3494 -0.3357
 2815PW      WP13380   0.149   5.513   4.775 -0.0188  0.5317  0.2904
 2815PW      WM13381   0.321   5.549   4.751 -0.2895 -0.3060  0.0658
 2816PW       W13382   0.322   2.738   1.406 -0.2001 -0.1524  0.1216
 2816PW      WP13383   0.340   2.729   1.545  0.2582  0.6594  0.1472
 2816PW      WM13384   0.409   2.819   1.331 -0.2744 -0.0166  0.1808
 2817PW       W13385   4.922   2.412   4.229 -0.0680  0.0655 -0.0152
 2817PW      WP13386   4.828   2.351   4.312 -0.0395  0.0588  0.0123
 2817PW      WM13387   4.945   2.320   4.126 -0.0428 -0.1751  0.2028
 2818PW       W13388   4.720  10.499   0.161  0.3264 -0.4147 -0.2461
 2818PW      WP13389   4.665  10.457   0.040 -1.0371 -0.4483  0.2974
 2818PW      WM13390   4.827  10.540   0.241  0.0705 -0.4129  0.1108
 2819PW       W13391   0.358   5.167  10.141 -0.1609  0.6292 -0.2274
 2819PW      WP13392   0.271   5.216  10.239  0.0850  0.3040  0.1673
 2819PW      WM13393   0.254   5.082  10.100  0.0472  0.0915  0.2936
 2820PW       W13394   3.073   4.858   9.960 -0.0480  0.3064  0.3488
 2820PW      WP13395   3.031   4.915   9.839  0.2159  0.0215  0.1138
 2820PW      WM13396   2.941   4.854   9.915 -0.0007  0.2474  0.2116
 2821PW       W13397   8.330   9.573   2.012  0.0486  0.1974 -0.1792
 2821PW      WP13398   8.380   9.703   1.997  0.6304  0.0118  0.0318
 2821PW      WM13399   8.388   9.521   2.128 -0.4952  0.1326  0.0819
 2822PW       W13400   4.330  11.907   8.386 -0.2246 -0.1102  0.0579
 2822PW      WP13401   4.440  11.959   8.456  0.3452 -0.4228 -0.5573
 2822PW      WM13402   4.191  11.893   8.384 -0.1874 -0.5225  0.0282
 2823PW       W13403   2.714   6.672   3.170  0.1670  0.1151  0.0544
 2823PW      WP13404   2.677   6.556   3.239 -0.0778  0.0769 -0.1374
 2823PW      WM13405   2.822   6.672   3.081  0.4038  0.0293  0.3328
 2824PW       W13406   7.904   0.575  12.307 -0.4187 -0.1605  0.1677
 2824PW      WP13407   7.997   0.472  12.286 -0.3990 -0.1616  0.2604
 2824PW      WM13408   7.871   0.682  12.223  0.4370  0.1303  0.1551
 2825PW       W13409   5.475  11.078  11.867  0.2196  0.2742  0.2461
 2825PW      WP13410   5.346  11.096  11.814  0.1768  0.0195  0.2562
 2825PW      WM13411   5.589  11.110  11.942  0.3319  0.4509  0.0050
 2826PW       W13412  10.765  10.411  11.132 -0.2700  0.0116 -0.2712
 2826PW      WP13413  10.788  10.277  11.167 -0.1853  0.0947  0.0028
 2826PW      WM13414  10.664  10.324  11.090 -0.1109 -0.8036  0.8143
 2827PW       W13415   6.693   5.836   9.067  0.2235 -0.0453  0.0172
 2827PW      WP13416   6.604   5.886   8.971 -0.0062 -0.2569  0.1138
 2827PW      WM13417   6.725   5.914   9.179 -0.7639  0.0410  0.2852
 2828PW       W13418   6.618   8.423   1.539 -0.0150  0.3177 -0.0731
 2828PW      WP13419   6.634   8.328   1.438 -0.3325  0.4160 -0.2216
 2828PW      WM13420   6.571   8.503   1.434  0.3412 -0.0118 -0.5053
 2829PW       W13421   7.344   4.070  11.265  0.4900  0.0211 -0.0492
 2829PW      WP13422   7.220   4.074  11.329  0.4189 -0.0596 -0.1795
 2829PW      WM13423   7.453   4.027  11.189  0.0302 -0.1663 -0.6431
 2830PW       W13424   2.820   8.352  11.387 -0.0352  0.3897 -0.2551
 2830PW      WP13425   2.715   8.375  11.477 -0.0142  0.6034 -0.2820
 2830PW      WM13426   2.780   8.218  11.384 -0.0589  0.3926 -0.1168
 2831PW       W13427   7.755   0.894   1.535 -0.5265  0.0471  0.0310
 2831PW      WP13428   7.826   1.004   1.584  0.0273  0.0681 -0.7223
 2831PW      WM13429   7.737   0.937   1.667 -0.2232  0.1594  0.0401
 2832PW       W13430   6.658   6.705   9.394  0.1255 -0.2158 -0.0232
 2832PW      WP13431   6.764   6.735   9.308 -0.2736 -0.2365 -0.5479
 2832PW      WM13432   6.627   6.569   9.387 -0.5954 -0.0854  0.2642
 2833PW       W13433  10.452  10.156  12.978  0.1316  0.6442 -0.1949
 2833PW      WP13434  10.517  10.068  12.890  0.0476 -0.0581  0.4028
 2833PW      WM13435  10.540  10.192  13.081 -0.1041 -0.2268  0.3602
 2834PW       W13436   7.094   2.279   2.408 -0.0440  0.2450  0.1723
 2834PW      WP13437   7.071   2.263   2.271  0.5946  0.0288  0.0719
 2834PW      WM13438   7.194   2.375   2.415 -0.1897  0.3820  0.4340
 2835PW       W13439   3.934   0.197   0.293  0.2040  0.4926  0.1523
 2835PW      WP13440   3.839   0.122   0.222  0.6295  0.3363 -0.2828
 2835PW      WM13441   4.006   0.235   0.179  0.1059 -0.2573 -0.1909
 2836PW       W13442   2.519  11.588   8.625 -0.0713  0.2094 -0.0988
 2836PW      WP13443   2.592  11.671   8.540  0.0656  0.0252 -0.1662
 2836PW      WM13444   2.625  11.499   8.604 -0.1486  0.0564  0.1340
 2837PW       W13445   7.337   2.444   4.059  0.0121  0.0910  0.4056
 2837PW      WP13446   7.439   2.478   4.149  0.3904  0.5305 -0.1596
 2837PW      WM13447   7.330   2.553   3.972 -0.3934 -0.4102 -0.2336
 2838PW       W13448   8.098   8.193  11.419  0.6079  0.1674 -0.0995
 2838PW      WP13449   8.030   8.287  11.497  0.2667 -0.3409  0.2478
 2838PW      WM13450   8.223   8.159  11.366  0.6361  0.4416 -0.2131
 2839PW       W13451   8.853   1.539   9.439  0.2809 -0.1748  0.1590
 2839PW      WP13452   8.865   1.633   9.542  0.1948 -0.2646  0.2518
 2839PW      WM13453   8.749   1.463   9.384 -0.1009  0.4211  0.0085
 2840PW       W13454   0.058   4.400  11.348 -0.0200 -0.2499 -0.2513
 2840PW      WP13455   0.113   4.292  11.278  0.0276 -0.0403 -0.5451
 2840PW      WM13456   0.064   4.509  11.261 -0.1019 -0.3168 -0.3409
 2841PW       W13457   4.237   1.498   0.587 -0.2226  0.4404 -0.6862
 2841PW      WP13458   4.322   1.605   0.618 -0.4831  0.5121 -0.1610
 2841PW      WM13459   4.199   1.364   0.572 -0.2043  0.3902 -0.3203
 2842PW       W13460  11.359   7.547  11.852  0.1664 -0.2016  0.0537
 2842PW      WP13461  11.436   7.469  11.765 -0.0848 -0.1039 -0.2696
 2842PW      WM13462  11.410   7.451  11.940 -0.0806 -0.3853  0.0012
 2843PW       W13463   6.333   0.402   8.814  0.2445  0.2745 -0.2419
 2843PW      WP13464   6.464   0.381   8.769  0.3604  0.2107  0.1036
 2843PW      WM13465   6.232   0.466   8.741  0.3749  0.2236 -0.4715
 2844PW       W13466   6.475   1.815  12.285  0.1446 -0.1519  0.0951
 2844PW      WP13467   6.558   1.795  12.396 -0.2425  0.5732  0.5510
 2844PW      WM13468   6.395   1.929  12.271  0.0218 -0.1404  0.7473
 2845PW       W13469   3.152   5.238  12.115  0.2007  0.5570  0.2476
 2845PW      WP13470   3.072   5.126  12.091  0.2513  0.5218  0.2417
 2845PW      WM13471   3.236   5.177  12.209 -0.3974 -0.4467  0.2069
 2846PW       W13472   9.712   5.985   9.285  0.0216 -0.0300  0.3427
 2846PW      WP13473   9.727   5.944   9.419 -0.3994 -0.0531  0.3896
 2846PW      WM13474   9.847   6.008   9.257  0.0857 -0.3679  0.3470
 2847PW       W13475  11.251   9.064  10.339  0.1988 -0.1440 -0.6989
 2847PW      WP13476  11.257   9.171  10.430  0.4746 -0.8125  0.1341
 2847PW      WM13477  11.136   9.135  10.301  0.0677 -0.0160 -0.1201
 2848PW       W13478   1.912   3.372   2.660  0.3033 -0.0370 -0.0703
 2848PW      WP13479   1.820   3.289   2.594  0.3395 -0.0034 -0.1649
 2848PW      WM13480   2.038   3.388   2.600  0.3835 -0.6192 -0.0899
 2849PW       W13481  10.862   8.582   9.276  0.5294 -0.1173 -0.2138
 2849PW      WP13482  10.839   8.716   9.242 -0.2214 -0.1916 -0.0764
 2849PW      WM13483  10.851   8.443   9.264  0.1335 -0.1440  0.2701
 2850PW       W13484  10.951   5.340   3.515  0.0883 -0.2768  0.1967
 2850PW      WP13485  10.951   5.455   3.436 -0.3526 -0.4660 -0.1005
 2850PW      WM13486  10.822   5.361   3.566  0.1480 -0.1242  0.2887
 2851PW       W13487   2.579  10.175   9.441  0.0582  0.3396 -0.0918
 2851PW      WP13488   2.607  10.295   9.374  0.0543  0.3169 -0.1344
 2851PW      WM13489   2.581  10.179   9.581  0.1214  0.0586 -0.0814
 2852PW       W13490   7.728   8.090   8.312 -0.3216 -0.1371  0.3801
 2852PW      WP13491   7.647   7.983   8.351 -0.7770  0.1471  0.2494
 2852PW      WM13492   7.812   8.122   8.419 -0.2093 -0.2453  0.3258
 2853PW       W13493  11.935  10.842   0.693  0.4207  0.2651  0.2333
 2853PW      WP13494  12.067  10.808   0.660  0.3080 -0.2170  0.2360
 2853PW      WM13495  11.853  10.843   0.580  0.3626  0.5286  0.2745
 2854PW       W13496  11.710   1.326   1.780 -0.2388 -0.0259 -0.1349
 2854PW      WP13497  11.669   1.203   1.727 -0.3885 -0.0773  0.0950
 2854PW      WM13498  11.807   1.388   1.860 -0.2819 -0.4987  0.3117
 2855PW       W13499   0.846   5.081   1.412 -0.1437 -0.6601 -0.5627
 2855PW      WP13500   0.756   5.179   1.368 -0.0132 -0.2307  0.0649
 2855PW      WM13501   0.763   5.029   1.511  0.0044  0.0112 -0.0513
 2856PW       W13502   3.277   9.093  13.301  0.0409 -0.0893  0.0533
 2856PW      WP13503   3.363   9.106  13.411  0.0731  0.0380  0.0144
 2856PW      WM13504   3.211   9.216  13.311  0.2865  0.0194  0.4807
 2857PW       W13505   6.179   7.709   4.091  0.0593  0.2295  0.1920
 2857PW      WP13506   6.097   7.626   4.167  0.3655 -0.1965  0.0795
 2857PW      WM13507   6.213   7.633   4.204 -0.8452 -0.1461  0.2509
 2858PW       W13508   6.412   3.414   1.855  0.0900 -0.2610 -0.0579
 2858PW      WP13509   6.357   3.407   1.726 -0.0489  0.5394 -0.0677
 2858PW      WM13510   6.501   3.491   1.778 -0.2567 -0.1929 -0.4090
 2859PW       W13511   2.066   2.232   9.767  0.1055 -0.0184 -0.0231
 2859PW      WP13512   1.980   2.153   9.844  0.1235 -0.0710 -0.0565
 2859PW      WM13513   2.183   2.179   9.823  0.0168  0.3777  0.5810
 2860PW       W13514   2.707   7.280  10.885 -0.0264  0.0472  0.0751
 2860PW      WP13515   2.762   7.216  10.997  0.1213 -0.3161 -0.1952
 2860PW      WM13516   2.793   7.379  10.935 -0.1173  0.2380 -0.1353
 2861PW       W13517   2.646   7.056   4.292  0.2489  0.3001 -0.0270
 2861PW      WP13518   2.587   7.122   4.184 -0.1906 -0.3669 -0.2297
 2861PW      WM13519   2.585   6.950   4.223  0.0300  0.2735  0.1993
 2862PW       W13520  10.457   3.375   8.752 -0.3023 -0.0369 -0.0700
 2862PW      WP13521  10.596   3.390   8.740 -0.3361  0.2618 -0.1303
 2862PW      WM13522  10.349   3.392   8.839  0.0872 -0.3688  0.5075
 2863PW       W13523   8.547   9.005   3.458 -0.5701 -0.1245 -0.2586
 2863PW      WP13524   8.665   9.008   3.384 -0.4170  0.5520 -0.0307
 2863PW      WM13525   8.505   8.879   3.502 -0.3797 -0.1481 -0.1387
 2864PW       W13526  11.866   6.337   3.789  0.1563 -0.0920 -0.2469
 2864PW      WP13527  11.856   6.477   3.785  0.0144 -0.0790  0.2397
 2864PW      WM13528  11.758   6.280   3.722 -0.2645 -0.0143  0.3206
 2865PW       W13529   3.458   1.059  11.424 -0.0170 -0.2913  0.1215
 2865PW      WP13530   3.555   0.966  11.464  0.1587 -0.0127  0.3560
 2865PW      WM13531   3.515   0.970  11.332  0.4004  0.2454 -0.1615
 2866PW       W13532   9.186   6.529   3.749  0.0960 -0.0435 -0.1801
 2866PW      WP13533   9.063   6.512   3.813  0.3519 -0.0563  0.3396
 2866PW      WM13534   9.153   6.574   3.621 -0.0131  0.4370  0.0044
 2867PW       W13535   3.330  10.498   9.846 -0.1474  0.2744  0.0378
 2867PW      WP13536   3.442  10.483   9.929  0.1517  0.3349 -0.3411
 2867PW      WM13537   3.353  10.621   9.783  0.1540  0.2651  0.1248
 2868PW       W13538   0.653   7.470   2.660 -0.1975 -0.6494  0.1029
 2868PW      WP13539   0.597   7.598   2.670  0.0901 -0.4854 -0.2712
 2868PW      WM13540   0.766   7.551   2.645 -0.3538 -0.4264  0.0951
 2869PW       W13541   5.245   2.888   5.160 -0.1697 -0.2277  0.0900
 2869PW      WP13542   5.145   2.977   5.202 -0.3946 -0.3997 -0.0634
 2869PW      WM13543   5.222   2.970   5.049  0.0081  0.2337  0.3810
 2870PW       W13544   7.157  10.675   9.821 -0.0548  0.1616  0.3016
 2870PW      WP13545   7.047  10.749   9.865  0.0871  0.3586  0.3329
 2870PW      WM13546   7.089  10.554   9.837 -0.0907  0.0727 -0.3788
 2871PW       W13547   4.786   7.998   0.547  0.1947 -0.2377 -0.2406
 2871PW      WP13548   4.675   7.971   0.629  0.5342  0.7421  0.6574
 2871PW      WM13549   4.802   7.891   0.458 -0.1657 -0.4574 -0.0548
 2872PW       W13550  10.539   4.335   9.299  0.2113 -0.0989  0.3334
 2872PW      WP13551  10.580   4.209   9.252  0.1496 -0.2162  0.5849
 2872PW      WM13552  10.401   4.326   9.314  0.0937  0.0708 -0.4424
 2873PW       W13553   5.117   3.667  10.461  0.3687 -0.5319  0.0249
 2873PW      WP13554   5.226   3.756  10.462 -0.1556  0.1597 -0.1032
 2873PW      WM13555   5.189   3.556  10.414  0.5159 -0.4630  0.0828
 2874PW       W13556   7.501   7.431   0.636 -0.0120 -0.5736  0.8286
 2874PW      WP13557   7.635   7.394   0.628  0.2577  0.3516 -0.4094
 2874PW      WM13558   7.536   7.387   0.508 -0.2300  0.5245  0.3306
 2875PW       W13559   5.257   8.221   2.876 -0.1994 -0.2279 -0.1673
 2875PW      WP13560   5.125   8.255   2.844 -0.0597  0.6682  0.0838
 2875PW      WM13561   5.198   8.222   3.003 -0.0564 -0.1704 -0.1000
 2876PW       W13562   0.542   4.601   8.497 -0.0107 -0.1807 -0.2414
 2876PW      WP13563   0.487   4.594   8.625 -0.0101 -0.1962 -0.2420
 2876PW      WM13564   0.636   4.498   8.495 -0.4235 -0.5849  0.0603
 2877PW       W13565   7.638   2.054   4.424 -0.0899  0.3919 -0.1042
 2877PW      WP13566   7.694   2.078   4.550 -0.2006  0.0108  0.0225
 2877PW      WM13567   7.672   2.179   4.370 -0.4224  0.5516  0.0392
 2878PW       W13568   7.574   0.762   2.863  0.1145  0.2247  0.1180
 2878PW      WP13569   7.452   0.776   2.929 -0.0084  0.4768 -0.1520
 2878PW      WM13570   7.552   0.639   2.799  0.0039  0.0628  0.4584
 2879PW       W13571  12.127   6.930  12.982  0.0954 -0.0038 -0.1847
 2879PW      WP13572  12.197   6.981  13.092 -0.4359 -0.1483  0.2419
 2879PW      WM13573  12.076   6.809  12.933 -0.5278  0.2954 -0.3219
 2880PW       W13574   1.105   0.976  10.682 -0.3001  0.5425  0.0584
 2880PW      WP13575   1.019   0.917  10.775 -0.2736  0.3814 -0.0194
 2880PW      WM13576   1.241   0.986  10.648 -0.1471 -0.7808  0.0159
 2881PW       W13577   8.490   5.978   5.201 -0.3239 -0.1185  0.2156
 2881PW      WP13578   8.503   5.839   5.188 -0.5429 -0.1187 -0.0521
 2881PW      WM13579   8.521   5.923   5.076 -0.1668  0.1868  0.1168
 2882PW       W13580   1.973   6.002  10.629 -0.3399  0.3273 -0.3758
 2882PW      WP13581   2.009   5.989  10.495 -0.3991  0.0646 -0.3676
 2882PW      WM13582   1.838   6.019  10.593 -0.4476  0.0350 -0.1280
 2883PW       W13583   8.469   7.372   5.109  0.3014 -0.0782 -0.4853
 2883PW      WP13584   8.434   7.237   5.117  0.1128 -0.0054  0.2812
 2883PW      WM13585   8.329   7.386   5.107  0.2547 -0.0647  0.5374
 2884PW       W13586  11.347   9.634   0.342  0.6209  0.0345 -0.0405
 2884PW      WP13587  11.342   9.612   0.204 -0.4559  0.2934 -0.0861
 2884PW      WM13588  11.391   9.698   0.458  0.5114  0.0936 -0.0301
 2885PW       W13589   5.443  11.796   5.453  0.1180 -0.0458 -0.0436
 2885PW      WP13590   5.377  11.911   5.409 -0.0062 -0.1339 -0.0907
 2885PW      WM13591   5.382  11.684   5.511  0.0762 -0.2731 -0.5063
 2886PW       W13592   2.978   8.303  10.080 -0.1936  0.2232 -0.2643
 2886PW      WP13593   2.877   8.337  10.171 -0.1453 -0.4975  0.0908
 2886PW      WM13594   2.980   8.164  10.064  0.1114  0.2007 -0.0737
 2887PW       W13595   2.880   4.242  12.249 -0.4463  0.4326  0.0104
 2887PW      WP13596   2.848   4.168  12.135 -0.0726 -0.5168  0.4673
 2887PW      WM13597   2.886   4.153  12.357 -0.3647 -0.1733 -0.4720
 2888PW       W13598   3.544   4.075   1.934  0.0783 -0.2342  0.1972
 2888PW      WP13599   3.570   4.184   1.849 -0.1969 -0.0467  0.3454
 2888PW      WM13600   3.542   4.007   2.056  0.3338 -0.3100  0.1614
 2889PW       W13601   9.150   9.912   4.352  0.0403  0.0023  0.0764
 2889PW      WP13602   9.028   9.900   4.421  0.1679 -0.0019  0.3049
 2889PW      WM13603   9.170   9.888   4.489  0.2628  0.3546  0.1116
 2890PW       W13604   4.441  11.985  10.167 -0.5392 -0.0865 -0.1111
 2890PW      WP13605   4.346  12.045  10.251 -0.3467  0.7296 -0.4347
 2890PW      WM13606   4.320  11.971  10.098 -0.5067 -0.3337 -0.1234
 2891PW       W13607  12.030  11.481   1.367  0.3771 -0.1863  0.3176
 2891PW      WP13608  12.103  11.398   1.454  0.2769 -0.4389  0.1675
 2891PW      WM13609  11.899  11.468   1.415 -0.0621  0.1046 -0.6748
 2892PW       W13610  10.604   8.466  10.882  0.0240  0.2969 -0.1888
 2892PW      WP13611  10.587   8.327  10.876  0.4612  0.2376 -0.2344
 2892PW      WM13612  10.554   8.478  11.012 -0.2673  0.2424 -0.2930
 2893PW       W13613   5.694   8.691  10.413 -0.2832 -0.0054  0.0897
 2893PW      WP13614   5.735   8.735  10.540 -0.2628  0.3182 -0.0265
 2893PW      WM13615   5.709   8.752  10.289  0.0725 -0.0520  0.1043
 2894PW       W13616   4.248   8.189   2.340  0.4568  0.3785 -0.1633
 2894PW      WP13617   4.193   8.311   2.378  0.5445  0.3815 -0.0441
 2894PW      WM13618   4.292   8.120   2.226  0.0071  0.2646 -0.2777
 2895PW       W13619   1.331  11.663   3.770  0.4210 -0.2767  0.1566
 2895PW      WP13620   1.198  11.707   3.762  0.5896  0.3207  0.3916
 2895PW      WM13621   1.357  11.702   3.638 -0.0135  0.0981  0.1705
 2896PW       W13622   2.537  11.173   9.451 -0.4534 -0.3619  0.4382
 2896PW      WP13623   2.512  11.256   9.561 -0.0786  0.1804  0.1348
 2896PW      WM13624   2.472  11.089   9.360 -0.3073  0.3104 -0.3479
 2897PW       W13625  10.690   1.949   0.375  0.2050 -0.2603 -0.1788
 2897PW      WP13626  10.632   2.031   0.278 -0.5260 -0.2786  0.2043
 2897PW      WM13627  10.815   1.900   0.336  0.2762 -0.4778  0.2953
 2898PW       W13628   5.260  10.496  12.331  0.2842 -0.7511  0.5803
 2898PW      WP13629   5.133  10.490  12.273  0.4851 -0.1434  0.0087
 2898PW      WM13630   5.383  10.562  12.317 -0.2436  0.1857 -0.5051
 2899PW       W13631  10.154   3.609   1.040  0.1574  0.0350 -0.1225
 2899PW      WP13632  10.228   3.655   0.931  0.0661 -0.0545 -0.2221
 2899PW      WM13633  10.162   3.721   1.124  0.4394  0.0762 -0.1992
 2900PW       W13634  12.008   5.884  11.936 -0.4338 -0.0236 -0.6973
 2900PW      WP13635  12.121   5.954  11.892  0.1880 -0.2511  0.3490
 2900PW      WM13636  12.071   5.811  12.038 -0.4911 -0.0897 -0.7085
 2901PW       W13637   6.829   1.432  11.692 -0.1532 -0.2719  0.0178
 2901PW      WP13638   6.821   1.417  11.553  0.0094  0.3334 -0.0698
 2901PW      WM13639   6.776   1.308  11.730 -0.6985  0.0232  0.2792
 2902PW       W13640   4.889   8.696  -0.025 -0.0294 -0.3285  0.1260
 2902PW      WP13641   4.794   8.627   0.051 -0.3671  0.0076  0.0250
 2902PW      WM13642   4.897   8.835  -0.023  0.0520 -0.3291 -0.0599
 2903PW       W13643   5.920   8.757   1.629 -0.2275  0.0574  0.1544
 2903PW      WP13644   5.879   8.873   1.562 -0.1282  0.0150  0.0176
 2903PW      WM13645   6.029   8.740   1.716 -0.1369 -0.0961  0.0128
 2904PW       W13646   9.708   6.874   1.647  0.3060  0.0929 -0.5969
 2904PW      WP13647   9.654   7.002   1.663  0.0947 -0.0363 -0.1946
 2904PW      WM13648   9.841   6.884   1.604  0.6450 -0.5435  0.1683
 2905PW       W13649   7.500   6.886   1.530  0.1638  0.2853  0.0941
 2905PW      WP13650   7.637   6.865   1.552  0.1026  0.0444  0.2549
 2905PW      WM13651   7.395   6.820   1.466  0.3890  0.0614 -0.0536
 2906PW       W13652  12.168   9.617  10.533  0.1325 -0.0808 -0.2398
 2906PW      WP13653  12.072   9.575  10.626  0.1589  0.3731  0.0060
 2906PW      WM13654  12.161   9.739  10.465  0.1612 -0.0114 -0.1197
 2907PW       W13655  10.219   0.155  11.716  0.0997  0.0790 -0.1454
 2907PW      WP13656  10.206   0.195  11.583  0.2928  0.1640 -0.1396
 2907PW      WM13657  10.226   0.177  11.854 -0.1344 -0.3194 -0.0592
 2908PW       W13658   3.255   2.512   8.777 -0.0907 -0.3298 -0.1827
 2908PW      WP13659   3.259   2.474   8.642  0.2721 -0.0419 -0.2623
 2908PW      WM13660   3.279   2.375   8.798  0.4847 -0.3045 -0.5656
 2909PW       W13661   3.281   0.057   0.799  0.1591 -0.2633  0.1413
 2909PW      WP13662   3.419   0.046   0.775  0.1122  0.0250 -0.3109
 2909PW      WM13663   3.245   0.005   0.674 -0.3279  0.4486 -0.0436
 2910PW       W13664   7.740   2.714   1.308  0.0417 -0.4103  0.1754
 2910PW      WP13665   7.670   2.744   1.426  0.4074 -0.2102  0.3515
 2910PW      WM13666   7.873   2.735   1.344 -0.1422 -0.2165  0.8011
 2911PW       W13667   6.254   2.807   1.253 -0.2575 -0.1035  0.1493
 2911PW      WP13668   6.280   2.831   1.118  0.2029  0.2599  0.2859
 2911PW      WM13669   6.178   2.922   1.277 -0.1567 -0.0617  0.2747
 2912PW       W13670   5.278   8.997  13.165 -0.3480  0.4241  0.0044
 2912PW      WP13671   5.211   9.023  13.286 -0.3090  0.1017  0.1006
 2912PW      WM13672   5.213   8.877  13.131 -0.0294  0.2719 -0.0811
 2913PW       W13673   0.489   9.708   4.222 -0.5844 -0.2441 -0.0004
 2913PW      WP13674   0.495   9.775   4.345 -0.3759 -0.0870 -0.0937
 2913PW      WM13675   0.612   9.655   4.266 -0.2799  0.1748 -0.3049
 2914PW       W13676   5.902   4.411   2.926 -0.2330  0.3849  0.2953
 2914PW      WP13677   5.833   4.302   2.870  0.1287  0.4137 -0.2459
 2914PW      WM13678   5.806   4.478   2.849 -0.1318  0.4113  0.1919
 2915PW       W13679   7.166   6.293   4.566 -0.2843  0.1464 -0.1921
 2915PW      WP13680   7.278   6.245   4.498 -0.2661  0.1564 -0.1693
 2915PW      WM13681   7.036   6.341   4.546 -0.1180  0.6322 -0.1810
 2916PW       W13682   0.517   6.582  11.885  0.4106 -0.0416 -0.3554
 2916PW      WP13683   0.583   6.705  11.898 -0.0437  0.1569  0.3646
 2916PW      WM13684   0.568   6.642  12.001  0.1983  0.2010 -0.3835
 2917PW       W13685   0.437  11.927  10.021 -0.1380  0.0833 -0.0472
 2917PW      WP13686   0.444  12.055   9.965  0.1346  0.1335  0.0966
 2917PW      WM13687   0.356  11.814  10.000 -0.1890  0.0588  0.2495
 2918PW       W13688   9.473   5.411   3.610  0.4426 -0.2287 -0.0354
 2918PW      WP13689   9.490   5.453   3.743  0.0295 -0.4095  0.0849
 2918PW      WM13690   9.466   5.275   3.577  0.0485 -0.1478 -0.3255
 2919PW       W13691  11.922   7.331   2.907 -0.0287 -0.1996  0.1145
 2919PW      WP13692  11.926   7.470   2.891  0.2740 -0.1891  0.2482
 2919PW      WM13693  11.885   7.197   2.891  0.1318 -0.3297  0.7048
 2920PW       W13694   7.451   7.672   3.471 -0.2351  0.0530  0.5474
 2920PW      WP13695   7.391   7.799   3.474 -0.2672  0.0716 -0.1704
 2920PW      WM13696   7.364   7.571   3.429  0.0344 -0.2032  0.5925
 2921PW       W13697  11.858   1.319   8.664  0.2441  0.0201  0.0806
 2921PW      WP13698  11.881   1.233   8.556 -0.1670 -0.2259  0.1761
 2921PW      WM13699  11.919   1.202   8.711 -0.0777  0.1128  0.8092
 2922PW       W13700   6.057   5.120  11.699 -0.5012  0.2478 -0.1729
 2922PW      WP13701   6.041   5.258  11.714 -0.1476  0.3063 -0.3115
 2922PW      WM13702   6.168   5.108  11.615 -0.0832  0.1082  0.3727
 2923PW       W13703   3.087  10.515   9.356  0.1131  0.3986  0.0424
 2923PW      WP13704   3.035  10.512   9.226 -0.0494  0.5204  0.1020
 2923PW      WM13705   3.043  10.602   9.456 -0.7256 -0.3991  0.4402
 2924PW       W13706   4.375   3.156   4.341 -0.0098 -0.1337  0.0684
 2924PW      WP13707   4.399   3.271   4.417 -0.1565  0.3558 -0.5771
 2924PW      WM13708   4.353   3.229   4.458 -0.3473 -0.3842  0.1691
 2925PW       W13709   3.750  10.325   9.388 -0.2938 -0.1495 -0.0607
 2925PW      WP13710   3.886  10.305   9.416 -0.2300 -0.2946 -0.4359
 2925PW      WM13711   3.717  10.355   9.255 -0.7600 -0.0680  0.0627
 2926PW       W13712  12.038   8.732  10.992  0.0467 -0.1014  0.0128
 2926PW      WP13713  12.142   8.824  11.013  0.1651 -0.2331  0.0115
 2926PW      WM13714  11.956   8.743  10.879  0.0466 -0.1386  0.0091
 2927PW       W13715   2.576   5.358   0.509 -0.0053 -0.4501 -0.2044
 2927PW      WP13716   2.468   5.318   0.589  0.1808 -0.0512  0.2717
 2927PW      WM13717   2.607   5.482   0.452 -0.6655 -0.1862 -0.0462
 2928PW       W13718   2.248   8.611  12.206  0.4758  0.8060 -0.3185
 2928PW      WP13719   2.346   8.548  12.284 -0.3201 -0.0905  0.0462
 2928PW      WM13720   2.137   8.682  12.159 -0.0005  0.2064 -0.1613
 2929PW       W13721   7.033   3.285  12.641 -0.1672  0.0920  0.1399
 2929PW      WP13722   6.947   3.181  12.682 -0.0658 -0.0320  0.0412
 2929PW      WM13723   7.147   3.364  12.659 -0.3558  0.3343  0.3092
 2930PW       W13724   2.249  10.221   0.374 -0.3837 -0.0630  0.1984
 2930PW      WP13725   2.132  10.151   0.342 -0.1111 -0.4996  0.1278
 2930PW      WM13726   2.246  10.084   0.348  0.1797  0.0332 -0.5321
 2931PW       W13727   4.853   6.522  10.141  0.2215 -0.3585 -0.0737
 2931PW      WP13728   4.932   6.636  10.157 -0.2197  0.0253 -0.4790
 2931PW      WM13729   4.811   6.584  10.023  0.0437  0.5530  0.4245
 2932PW       W13730   3.890   9.882   1.811 -0.0483 -0.0229  0.0719
 2932PW      WP13731   3.904  10.019   1.784  0.1599  0.0199  0.3632
 2932PW      WM13732   3.786   9.888   1.905  0.2161 -0.2224  0.3898
 2933PW       W13733  10.685   7.680   4.026 -0.4094 -0.1665  0.2508
 2933PW      WP13734  10.735   7.775   4.116 -0.1805 -0.1656  0.1266
 2933PW      WM13735  10.670   7.767   3.918  0.6269  0.0744  0.2506
 2934PW       W13736   6.458   6.080   5.246 -0.1474  0.0646 -0.0561
 2934PW      WP13737   6.497   6.100   5.379 -0.1303  0.1517 -0.0742
 2934PW      WM13738   6.365   6.177   5.207 -0.0359  0.0079 -0.4830
 2935PW       W13739   0.804   0.487  13.007  0.1346 -0.1084 -0.2542
 2935PW      WP13740   0.727   0.582  13.076  0.2078 -0.0069 -0.3114
 2935PW      WM13741   0.911   0.533  12.930  0.1166  0.3997  0.0031
 2936PW       W13742  10.512  11.904   9.570 -0.1540 -0.3056  0.3655
 2936PW      WP13743  10.437  12.021   9.563  0.6352  0.2294  0.1245
 2936PW      WM13744  10.527  11.876   9.434 -0.1455  0.3289  0.2216
 2937PW       W13745   9.444   2.630   9.871  0.1928 -0.1089 -0.0939
 2937PW      WP13746   9.441   2.515   9.950  0.4018 -0.3695 -0.4506
 2937PW      WM13747   9.468   2.564   9.750 -0.0768  0.0082 -0.2172
 2938PW       W13748   3.614   7.038  12.359  0.0853  0.1889 -0.0616
 2938PW      WP13749   3.607   7.051  12.498 -0.2568  0.0956 -0.0669
 2938PW      WM13750   3.493   7.107  12.369 -0.1206 -0.1515 -0.1598
 2939PW       W13751   6.045   9.035   8.815 -0.1007  0.0065  0.0341
 2939PW      WP13752   5.933   9.044   8.899  0.1005 -0.2047  0.3313
 2939PW      WM13753   6.098   8.998   8.691 -0.0516 -0.1465  0.1000
 2940PW       W13754   2.955   4.141  10.732  0.3558  0.0461 -0.0170
 2940PW      WP13755   2.871   4.245  10.688  0.1751  0.0314  0.2776
 2940PW      WM13756   2.942   4.129  10.871 -0.0733 -0.1719 -0.0658
 2941PW       W13757   3.076   4.862  12.891  0.3482  0.0590  0.2183
 2941PW      WP13758   3.197   4.844  12.959  0.4385  0.3165  0.1321
 2941PW      WM13759   3.102   4.735  12.837  0.5808  0.2648 -0.1778
 2942PW       W13760  10.961   5.335   4.577  0.1166 -0.1647 -0.1068
 2942PW      WP13761  10.962   5.232   4.672  0.2272  0.0051  0.0814
 2942PW      WM13762  11.035   5.432   4.509 -0.1956 -0.1514 -0.4472
 2943PW       W13763   2.726   1.686   8.724 -0.2394 -0.1585 -0.0150
 2943PW      WP13764   2.863   1.714   8.723 -0.2744  0.0246 -0.2221
 2943PW      WM13765   2.728   1.646   8.858 -0.2627 -0.4863 -0.1083
 2944PW       W13766   5.684   3.733   1.203 -0.0633  0.3597  0.7606
 2944PW      WP13767   5.666   3.594   1.207  0.4408  0.2513  0.1723
 2944PW      WM13768   5.799   3.798   1.155 -0.0090 -0.1076  0.2008
 2945PW       W13769   3.264   1.213   9.437  0.1631 -0.2695 -0.2363
 2945PW      WP13770   3.218   1.291   9.545  0.1089 -0.2672 -0.2608
 2945PW      WM13771   3.395   1.208   9.487  0.3191  0.5474 -0.4832
 2946PW       W13772   8.256   8.106  10.445 -0.2363  0.5053 -0.1901
 2946PW      WP13773   8.155   8.028  10.503 -0.2221  0.5143 -0.1530
 2946PW      WM13774   8.270   8.189  10.558 -0.1743  0.5088 -0.2000
 2947PW       W13775   0.585  10.163   2.229  0.0275  0.3780 -0.1095
 2947PW      WP13776   0.480  10.077   2.263  0.2961 -0.0924 -0.4197
 2947PW      WM13777   0.515  10.270   2.286  0.0956  0.1884  0.3550
 2948PW       W13778   8.655   2.914  12.268 -0.0941 -0.0479  0.1430
 2948PW      WP13779   8.716   2.965  12.384 -0.3420  0.1818  0.1777
 2948PW      WM13780   8.699   2.937  12.137 -0.8019  0.2983 -0.0590
 2949PW       W13781   1.597   8.343  12.867 -0.3776 -0.0203  0.0609
 2949PW      WP13782   1.575   8.466  12.805  0.2261  0.1430  0.1409
 2949PW      WM13783   1.681   8.379  12.973 -0.6182  0.3588  0.1321
 2950PW       W13784   6.741   7.032   3.704  0.2017  0.5383  0.4293
 2950PW      WP13785   6.874   7.037   3.748  0.3064 -0.1397  0.2565
 2950PW      WM13786   6.694   6.935   3.794  0.1574  0.3324  0.1903
 2951PW       W13787   1.462   5.648  11.483 -0.0836  0.1045  0.2399
 2951PW      WP13788   1.528   5.772  11.489  0.7913 -0.3286  0.3197
 2951PW      WM13789   1.403   5.655  11.356  0.5004  0.5346 -0.0354
 2952PW       W13790   1.876   6.688   3.221 -0.2461  0.0330  0.5616
 2952PW      WP13791   2.005   6.740   3.234 -0.0438 -0.1417 -0.3727
 2952PW      WM13792   1.815   6.803   3.169  0.2886  0.1122  0.0679
 2953PW       W13793   4.392   5.073  12.203  0.1177 -0.1204 -0.2272
 2953PW      WP13794   4.387   5.212  12.223 -0.0263 -0.0612 -0.6268
 2953PW      WM13795   4.289   4.985  12.168 -0.1174 -0.1220  0.4026
 2954PW       W13796   3.834   4.322   9.565  0.1746  0.1769  0.1131
 2954PW      WP13797   3.726   4.260   9.629  0.3398 -0.3912 -0.1303
 2954PW      WM13798   3.938   4.350   9.654  0.3873  0.2128 -0.1387
 2955PW       W13799  10.969   2.933  11.593 -0.1968 -0.3770  0.0530
 2955PW      WP13800  10.897   2.947  11.474 -0.2880  0.0686  0.1508
 2955PW      WM13801  10.883   2.896  11.697  0.1892  0.0008  0.5311
 2956PW       W13802   9.013   1.330   8.313  0.0494  0.0669  0.2218
 2956PW      WP13803   8.919   1.227   8.300 -0.3028  0.3660  0.3069
 2956PW      WM13804   8.942   1.358   8.430 -0.2206  0.1191  0.0477
 2957PW       W13805   1.393   1.711   9.870 -0.0392  0.4136 -0.3123
 2957PW      WP13806   1.271   1.676   9.811  0.0737 -0.4628 -0.0983
 2957PW      WM13807   1.302   1.699   9.976 -0.2095  0.3554 -0.4622
 2958PW       W13808   3.988   5.074  11.931 -0.2529  0.0911  0.0716
 2958PW      WP13809   4.045   4.987  12.024  0.3537  0.3162 -0.0684
 2958PW      WM13810   3.895   5.106  11.831  0.0610  0.3737 -0.1413
 2959PW       W13811   6.749   6.628  10.900 -0.4626 -0.1437  0.2087
 2959PW      WP13812   6.717   6.645  10.765  0.0400  0.2365  0.1206
 2959PW      WM13813   6.810   6.678  11.016  0.1509  0.1290 -0.2037
 2960PW       W13814   2.079   4.926  12.105  0.1863 -0.2820  0.1382
 2960PW      WP13815   2.032   4.971  12.228 -0.2137  0.2705 -0.1956
 2960PW      WM13816   2.010   5.047  12.119  0.2748 -0.2352  0.1771
 2961PW       W13817   4.049   5.549   9.264 -0.3643  0.0301  0.4460
 2961PW      WP13818   4.018   5.677   9.310 -0.3129  0.0570  0.4072
 2961PW      WM13819   4.001   5.504   9.141 -0.1725  0.4146  0.2202
 2962PW       W13820   3.688   2.221   8.961  0.3484 -0.3700 -0.3418
 2962PW      WP13821   3.799   2.291   8.912  0.2142  0.0159 -0.1136
 2962PW      WM13822   3.710   2.103   9.034  0.2488 -0.0746  0.1861
 2963PW       W13823   8.545  11.964  10.885  0.4732  0.3329  0.0950
 2963PW      WP13824   8.539  11.878  10.996 -0.2485 -0.2147 -0.3186
 2963PW      WM13825   8.676  11.927  10.852  0.4069  0.0378  0.1431
 2964PW       W13826  10.122   0.044   3.524 -0.1505 -0.4273 -0.1575
 2964PW      WP13827  10.009   0.113   3.478  0.2285  0.2226 -0.1737
 2964PW      WM13828  10.248   0.052   3.584 -0.3416  0.3308  0.1993
 2965PW       W13829   3.973   4.063   3.599 -0.5165  0.2986 -0.0809
 2965PW      WP13830   3.934   3.967   3.506  0.3489  0.1560 -0.3364
 2965PW      WM13831   3.920   3.934   3.606 -0.4338  0.2776  0.2986
 2966PW       W13832   8.384   5.779   3.344  0.0155 -0.1168  0.0369
 2966PW      WP13833   8.327   5.689   3.435 -0.4602 -0.3623 -0.4759
 2966PW      WM13834   8.496   5.746   3.266 -0.0875  0.3889 -0.3540
 2967PW       W13835   1.825   0.454  10.192 -0.4105  0.2273  0.3504
 2967PW      WP13836   1.849   0.556  10.099 -0.0647 -0.0929  0.0719
 2967PW      WM13837   1.949   0.457  10.128 -0.5418 -0.7517 -0.0384
 2968PW       W13838   3.864   0.422   9.242 -0.5549  0.1858 -0.2888
 2968PW      WP13839   3.921   0.448   9.367 -0.0895 -0.8886 -0.2169
 2968PW      WM13840   3.910   0.548   9.203  0.1074  0.0838  0.0868
 2969PW       W13841   5.633   3.688   1.780 -0.2019 -0.1577  0.1843
 2969PW      WP13842   5.710   3.606   1.864  0.1976 -0.0220 -0.0323
 2969PW      WM13843   5.732   3.787   1.777 -0.5013  0.1533  0.2578
 2970PW       W13844  11.590   2.384  10.925  0.1050  0.0344 -0.0929
 2970PW      WP13845  11.646   2.510  10.948 -0.1464  0.1345 -0.0095
 2970PW      WM13846  11.656   2.277  10.863  0.1229  0.1236 -0.2299
 2971PW       W13847   9.689   4.302   5.016 -0.0845  0.0070 -0.0133
 2971PW      WP13848   9.706   4.340   4.882  0.2676 -0.3843 -0.0904
 2971PW      WM13849   9.736   4.172   4.992 -0.4838 -0.0654 -0.4765
 2972PW       W13850   5.377   2.440  12.834  0.2125  0.5597  0.0054
 2972PW      WP13851   5.261   2.376  12.879  0.2283  0.3661 -0.2198
 2972PW      WM13852   5.340   2.575  12.825  0.2788  0.5563 -0.3954
 2973PW       W13853   7.044   2.260  11.886 -0.2347  0.0518 -0.4981
 2973PW      WP13854   7.053   2.135  11.823  0.7744 -0.0823 -0.1760
 2973PW      WM13855   6.954   2.275  11.992  0.4994 -0.2051  0.2127
 2974PW       W13856  10.260   2.820   5.127 -0.0245  0.3254 -0.0752
 2974PW      WP13857  10.191   2.942   5.121 -0.0764  0.2958 -0.0852
 2974PW      WM13858  10.180   2.715   5.081 -0.4601  0.4675  0.3131
 2975PW       W13859   8.348   0.439   0.833 -0.5190  0.1597  0.0300
 2975PW      WP13860   8.361   0.468   0.697 -0.3953  0.2445  0.0592
 2975PW      WM13861   8.347   0.456   0.694 -0.2469  0.1536  0.0243
 2976PW       W13862   3.952   1.043  12.501  0.3637  0.1705 -0.1089
 2976PW      WP13863   3.899   1.104  12.616 -0.4690 -0.2509 -0.2320
 2976PW      WM13864   4.034   0.946  12.443 -0.4003 -0.2920 -0.4879
 2977PW       W13865   3.495   9.413   3.461 -0.2267 -0.2582  0.1353
 2977PW      WP13866   3.542   9.487   3.570 -0.0920  0.0936 -0.1486
 2977PW      WM13867   3.525   9.340   3.345 -0.1905 -0.0621  0.0177
 2978PW       W13868   6.017   1.774  13.124 -0.0052 -0.4513  0.0134
 2978PW      WP13869   5.946   1.732  13.237 -0.0756  0.3492  0.3000
 2978PW      WM13870   6.153   1.744  13.139  0.0335 -0.1709  0.2841
 2979PW       W13871   2.375   0.519  13.008 -0.0830 -0.4428 -0.2568
 2979PW      WP13872   2.491   0.457  12.957  0.1061 -0.4562  0.1707
 2979PW      WM13873   2.282   0.464  13.096  0.1118 -0.5692 -0.1249
 2980PW       W13874   4.135   8.816   5.124  0.4375  0.5818 -0.1086
 2980PW      WP13875   4.052   8.919   5.171  0.0419  0.4493 -0.4891
 2980PW      WM13876   4.097   8.827   4.990  0.2667 -0.0660 -0.1295
 2981PW       W13877   5.105  11.650  13.043 -0.0013  0.2303  0.2672
 2981PW      WP13878   5.199  11.717  13.121  0.0682 -0.0863  0.4632
 2981PW      WM13879   5.044  11.602  13.160 -0.0722  0.6658  0.4174
 2982PW       W13880   5.751   0.056   2.331  0.0440 -0.1887  0.2835
 2982PW      WP13881   5.814   0.170   2.384 -0.1697  0.2200 -0.2887
 2982PW      WM13882   5.706   0.167   2.259  0.1694 -0.2039  0.1802
 2983PW       W13883   5.514   1.840   0.772  0.1107 -0.1285  0.2859
 2983PW      WP13884   5.559   1.733   0.849 -0.1891 -0.1723  0.4067
 2983PW      WM13885   5.630   1.819   0.696 -0.1285  0.2855 -0.2302
 2984PW       W13886   2.304   8.952   9.254  0.2833 -0.1115 -0.7624
 2984PW      WP13887   2.198   9.033   9.211 -0.0783 -0.0406  0.1640
 2984PW      WM13888   2.312   8.825   9.312  0.3801  0.1205 -0.2446
 2985PW       W13889   2.409   7.474   9.433 -0.1639  0.0198  0.4572
 2985PW      WP13890   2.277   7.435   9.457 -0.2393 -0.0144  0.0267
 2985PW      WM13891   2.514   7.539   9.500 -0.1272  0.2365  0.1970
 2986PW       W13892   6.467   5.355   0.978 -0.1176  0.0878 -0.1796
 2986PW      WP13893   6.559   5.454   0.939  0.1555 -0.2462 -0.4095
 2986PW      WM13894   6.370   5.333   0.879 -0.4353 -0.2976  0.1982
 2987PW       W13895   8.689   0.719   5.180  0.3367 -0.1655 -0.1022
 2987PW      WP13896   8.704   0.858   5.173 -0.6784 -0.0297 -0.5154
 2987PW      WM13897   8.807   0.648   5.159  0.2373 -0.3861  0.0676
 2988PW       W13898   7.485   3.246   3.543  0.2599  0.0303  0.2024
 2988PW      WP13899   7.591   3.158   3.569  0.2907 -0.1030 -0.3169
 2988PW      WM13900   7.400   3.291   3.441  0.4684  0.5183  0.2314
 2989PW       W13901   4.472   7.879   4.975  0.1469 -0.1263  0.1635
 2989PW      WP13902   4.454   7.741   4.964  0.0271 -0.1109  0.1551
 2989PW      WM13903   4.393   7.919   4.866 -0.1304 -0.6106  0.1746
 2990PW       W13904   8.301  10.701  12.524 -0.4397 -0.2857 -0.4318
 2990PW      WP13905   8.430  10.689  12.472 -0.0816  0.6034  0.1190
 2990PW      WM13906   8.279  10.612  12.630  0.4431  0.1954  0.2248
 2991PW       W13907   5.498   6.026  10.589 -0.1293  0.1286 -0.3006
 2991PW      WP13908   5.459   5.894  10.614 -0.3973  0.3091  0.3164
 2991PW      WM13909   5.540   6.093  10.474  0.1310 -0.1962 -0.4022
 2992PW       W13910  11.035   9.467   2.862  0.1682  0.1155 -0.2028
 2992PW      WP13911  11.039   9.353   2.943 -0.3215 -0.0466 -0.3898
 2992PW      WM13912  10.897   9.481   2.879  0.1821  0.0985 -0.0702
 2993PW       W13913   8.630   1.761   2.154  0.3255 -0.3445 -0.2108
 2993PW      WP13914   8.748   1.819   2.202 -0.0376 -0.0488  0.3979
 2993PW      WM13915   8.638   1.662   2.055 -0.2683 -0.0978 -0.5314
 2994PW       W13916   6.392  11.250   1.686  0.2124  0.2528 -0.6845
 2994PW      WP13917   6.477  11.258   1.575  0.4411  0.0075 -0.5306
 2994PW      WM13918   6.408  11.348   1.785 -0.0618  0.5982 -0.9667
 2995PW       W13919   8.920   8.643  10.949  0.0904 -0.0692 -0.1955
 2995PW      WP13920   8.896   8.525  10.877  0.1430  0.1140 -0.5211
 2995PW      WM13921   8.990   8.558  11.035  0.0720  0.2996  0.1954
 2996PW       W13922   1.505  11.776  12.963  0.2104 -0.2534  0.0582
 2996PW      WP13923   1.641  11.752  12.984  0.3472  0.3103 -0.0910
 2996PW      WM13924   1.513  11.723  13.092 -0.0296 -0.3107  0.0525
 2997PW       W13925   6.520   9.454   1.605  0.4174  0.2542 -0.3279
 2997PW      WP13926   6.446   9.348   1.550  0.1344 -0.0305  0.5260
 2997PW      WM13927   6.548   9.458   1.742 -0.3154 -0.0908 -0.1432
 2998PW       W13928   9.029   9.731  10.012  0.1447  0.1405 -0.1650
 2998PW      WP13929   9.079   9.665  10.125 -0.3357  0.1805  0.0857
 2998PW      WM13930   9.048   9.868   9.989 -0.3334  0.2792  0.1646
 2999PW       W13931  11.037   7.221   9.382  0.2036  0.2397  0.1776
 2999PW      WP13932  11.096   7.338   9.334  0.7281  0.0651  0.3645
 2999PW      WM13933  10.981   7.235   9.510  0.0631 -0.0445  0.1496
 3000PW       W13934  11.672   7.298  11.487 -0.2504  0.0906  0.2237
 3000PW      WP13935  11.768   7.351  11.573  0.0892 -0.0978 -0.0232
 3000PW      WM13936  11.551   7.336  11.545 -0.2905  0.1451  0.1060
 3001PW       W13937   3.163   3.708  10.527 -0.0979 -0.0311  0.1129
 3001PW      WP13938   3.190   3.841  10.562  0.1572 -0.1169  0.2600
 3001PW      WM13939   3.248   3.670  10.632  0.4992 -0.0683 -0.3539
 3002PW       W13940  11.694  11.702   9.043  0.0209 -0.1525 -0.0375
 3002PW      WP13941  11.758  11.775   8.942 -0.2526 -0.2091 -0.2557
 3002PW      WM13942  11.648  11.738   9.170  0.0198 -0.4026  0.0366
 3003PW       W13943   6.594   8.961   9.949 -0.2034  0.5884 -0.4528
 3003PW      WP13944   6.506   8.981  10.056 -0.2413  0.3913 -0.4443
 3003PW      WM13945   6.556   8.857   9.863  0.2311 -0.3779  0.4161
 3004PW       W13946   2.184   1.683   9.597 -0.0953  0.3321  0.0160
 3004PW      WP13947   2.108   1.743   9.698 -0.3806 -0.2917  0.1967
 3004PW      WM13948   2.182   1.545   9.576 -0.0872  0.3045  0.1895
 3005PW       W13949   7.527   0.000   4.666 -0.3156 -0.0918  0.3446
 3005PW      WP13950   7.600  -0.031   4.780 -0.0656  0.3413  0.3131
 3005PW      WM13951   7.464   0.122   4.637  0.0731 -0.0130 -0.2511
 3006PW       W13952   1.251   8.584   0.498  0.0748 -0.0624  0.0557
 3006PW      WP13953   1.350   8.670   0.546 -0.4305  0.2420  0.6143
 3006PW      WM13954   1.247   8.526   0.625 -0.2129 -0.1247  0.0221
 3007PW       W13955   6.726  10.243   4.675 -0.2558  0.3118 -0.4741
 3007PW      WP13956   6.795  10.362   4.650 -0.1244  0.3681  0.0975
 3007PW      WM13957   6.596  10.267   4.722 -0.0822  0.1680  0.1149
 3008PW       W13958   4.938  11.807   3.162 -0.1299  0.5011 -0.1011
 3008PW      WP13959   4.946  11.824   3.301 -0.3768 -0.0134 -0.0134
 3008PW      WM13960   4.904  11.673   3.142  0.0022  0.5086 -0.4052
 3009PW       W13961   1.310   8.283  10.721  0.2976  0.2831  0.1721
 3009PW      WP13962   1.394   8.249  10.828  0.2454  0.0332  0.1360
 3009PW      WM13963   1.369   8.301  10.596 -0.1801 -0.1498 -0.1341
 3010PW       W13964   0.650   9.813  12.340  0.2622  0.0100  0.1032
 3010PW      WP13965   0.722   9.698  12.305 -0.0269 -0.2491  0.3332
 3010PW      WM13966   0.630   9.778  12.474 -0.3311 -0.4016 -0.0779
 3011PW       W13967   7.773  10.682   2.434  0.2702  0.2417  0.2297
 3011PW      WP13968   7.815  10.633   2.558 -0.4980 -0.0505  0.3974
 3011PW      WM13969   7.818  10.670   2.302  0.1062 -0.1031  0.2003
 3012PW       W13970   9.414  10.754   8.884  0.2391  0.1358  0.0603
 3012PW      WP13971   9.454  10.757   8.750 -0.2449  0.3205 -0.0890
 3012PW      WM13972   9.493  10.773   8.998  0.0227 -0.0042  0.2376
 3013PW       W13973   6.554   2.451   3.110 -0.1552  0.4206  0.0968
 3013PW      WP13974   6.594   2.549   3.201  0.1271  0.5128 -0.1190
 3013PW      WM13975   6.435   2.487   3.046 -0.2240  0.1017  0.0374
 3014PW       W13976  12.023   1.532   9.756 -0.0712 -0.1255 -0.2028
 3014PW      WP13977  12.043   1.399   9.796  0.3807  0.0913  0.3673
 3014PW      WM13978  12.145   1.574   9.701  0.2415 -0.6731  0.0376
 3015PW       W13979   8.373  10.145  10.223  0.0188 -0.0304 -0.2926
 3015PW      WP13980   8.294  10.257  10.248  0.0772  0.0055 -0.2675
 3015PW      WM13981   8.258  10.073  10.188  0.1257 -0.2910 -0.1248
 3016PW       W13982   8.512   9.849   3.165 -0.2148  0.2257 -0.3971
 3016PW      WP13983   8.637   9.889   3.213 -0.1973 -0.2221 -0.0257
 3016PW      WM13984   8.614   9.755   3.147 -0.2604  0.0658  0.0970
 3017PW       W13985  12.097   9.625   2.438  0.1361  0.2214 -0.0562
 3017PW      WP13986  12.093   9.611   2.577  0.0120  0.1868 -0.0628
 3017PW      WM13987  12.223   9.640   2.379 -0.0420 -0.2016 -0.5848
 3018PW       W13988   7.380  10.577   3.032 -0.1281  0.1660 -0.0321
 3018PW      WP13989   7.378  10.659   3.146 -0.3748  0.1835 -0.0471
 3018PW      WM13990   7.464  10.689   3.045 -0.0368  0.1189 -0.1960
 3019PW       W13991   8.116  12.114   2.945 -0.7874 -0.2580  0.0696
 3019PW      WP13992   8.158  11.982   2.926 -0.4832 -0.1908  0.2421
 3019PW      WM13993   8.125  12.064   3.075 -0.2253 -0.3791 -0.0042
 3020PW       W13994   9.370   9.793  10.691  0.0993  0.4541  0.0822
 3020PW      WP13995   9.265   9.742  10.768 -0.2181 -0.1767 -0.6974
 3020PW      WM13996   9.488   9.723  10.664 -0.0402  0.3113 -0.1879
 3021PW       W13997   0.019   9.053   1.500  0.4464  0.3824  0.4616
 3021PW      WP13998   0.077   9.142   1.409  0.0635  0.3666  0.1882
 3021PW      WM13999   0.032   8.945   1.587 -0.0943 -0.0617  0.0291
 3022PW       W14000   9.492   3.634   2.469 -0.4537  0.2664 -0.0336
 3022PW      WP14001   9.427   3.758   2.475 -0.5909  0.2156 -0.3523
 3022PW      WM14002   9.466   3.619   2.332 -0.8928 -0.2603  0.0871
 3023PW       W14003   1.594   6.189  11.271 -0.0626  0.1605 -0.0679
 3023PW      WP14004   1.684   6.092  11.228 -0.2387 -0.1138  0.1630
 3023PW      WM14005   1.565   6.117  11.388 -0.3154 -0.0019 -0.2252
 3024PW       W14006   6.564   1.485   4.307 -0.0269  0.0306  0.0106
 3024PW      WP14007   6.650   1.520   4.412  0.4380 -0.5122 -0.1619
 3024PW      WM14008   6.691   1.514   4.258 -0.0162 -0.1705 -0.0870
 3025PW       W14009   4.004   4.909  12.986 -0.2019 -0.4136  0.3933
 3025PW      WP14010   3.905   4.903  13.085 -0.0166 -0.1033  0.6057
 3025PW      WM14011   4.100   4.944  13.081  0.1526  0.0479 -0.1048
 3026PW       W14012   9.834   2.022  12.609 -0.0389  0.0911 -0.0262
 3026PW      WP14013   9.810   2.087  12.731  0.0926 -0.1120  0.1110
 3026PW      WM14014   9.918   1.913  12.633 -0.0047 -0.0136 -0.5628
 3027PW       W14015   1.829  11.626   1.752  0.2262  0.0178 -0.1447
 3027PW      WP14016   1.888  11.530   1.668  0.4869 -0.1443  0.2121
 3027PW      WM14017   1.898  11.745   1.725  0.4569 -0.1020 -0.0985
 3028PW       W14018   2.244   3.506   5.176  0.3627  0.1586  0.3169
 3028PW      WP14019   2.149   3.409   5.209  0.3099 -0.0108 -0.2698
 3028PW      WM14020   2.186   3.426   5.275  0.4582 -0.3702 -0.0329
 3029PW       W14021   2.225   6.824   2.887  0.1045 -0.1899  0.3842
 3029PW      WP14022   2.100   6.764   2.907 -0.0702 -0.0190 -0.1290
 3029PW      WM14023   2.217   6.693   2.937 -0.4189 -0.3829 -0.1440
 3030PW       W14024   4.623   3.739   1.783  0.1988 -0.6308  0.2701
 3030PW      WP14025   4.538   3.792   1.881  0.1986  0.3933 -0.2209
 3030PW      WM14026   4.632   3.734   1.644 -0.2710 -0.1379  0.2095
 3031PW       W14027   6.544   9.051  10.500 -0.2690 -0.2181  0.3085
 3031PW      WP14028   6.611   8.938  10.453  0.2280 -0.0857  0.6615
 3031PW      WM14029   6.630   9.161  10.512 -0.0540 -0.3411 -0.0305
 3032PW       W14030   6.527   0.653   0.596 -0.1101 -0.0879 -0.0611
 3032PW      WP14031   6.548   0.544   0.510 -0.4425 -0.2686  0.0799
 3032PW      WM14032   6.403   0.685   0.652 -0.0633 -0.2467  0.1395
 3033PW       W14033   9.334   6.313  12.452 -0.2011 -0.1047 -0.0475
 3033PW      WP14034   9.301   6.193  12.516  0.0655 -0.1722 -0.0278
 3033PW      WM14035   9.430   6.229  12.393 -0.0296  0.1629 -0.1594
 3034PW       W14036   7.234   2.009  12.631 -0.6771 -0.0622  0.7028
 3034PW      WP14037   7.136   2.091  12.574 -0.2349  0.0413  0.0414
 3034PW      WM14038   7.347   2.074  12.682 -0.2158  0.0948 -0.3911
 3035PW       W14039  11.971   8.682   8.446  0.0915  0.1782 -0.1836
 3035PW      WP14040  11.885   8.784   8.488  0.0396  0.2487 -0.4505
 3035PW      WM14041  11.911   8.580   8.520 -0.0761  0.3075 -0.1376
 3036PW       W14042   4.431  11.246   0.614  0.1766  0.2983 -0.3916
 3036PW      WP14043   4.548  11.274   0.543  0.2627  0.5708 -0.1508
 3036PW      WM14044   4.519  11.164   0.685  0.0643  0.2732 -0.2798
 3037PW       W14045   8.940   0.590  10.898  0.0055 -0.0544  0.0616
 3037PW      WP14046   8.848   0.693  10.923  0.1132  0.2816 -0.7510
 3037PW      WM14047   8.916   0.681  10.794 -0.0713  0.1370  0.2442
 3038PW       W14048   3.891   0.295  11.859  0.0681  0.0881  0.4709
 3038PW      WP14049   4.028   0.324  11.845  0.0053  0.2178  0.0588
 3038PW      WM14050   3.828   0.387  11.775  0.2041 -0.0501  0.2132
 3039PW       W14051   0.630   3.059  10.405 -0.0793 -0.1588  0.1666
 3039PW      WP14052   0.612   2.934  10.345  0.5429 -0.4247  0.4863
 3039PW      WM14053   0.555   3.173  10.434  0.2718  0.0970  0.1068
 3040PW       W14054   0.457   2.901   8.624 -0.0873 -0.2409 -0.2415
 3040PW      WP14055   0.334   2.865   8.568 -0.1564 -0.1585 -0.1447
 3040PW      WM14056   0.589   2.948   8.617 -0.3432  0.5652 -0.2093
 3041PW       W14057   1.770   0.812   4.120 -0.2246 -0.0515  0.2904
 3041PW      WP14058   1.725   0.681   4.102  0.2167 -0.1338 -0.4162
 3041PW      WM14059   1.700   0.874   4.016  0.0789  0.3795  0.3281
 3042PW       W14060  12.122   2.791  12.238  0.3480  0.2640 -0.0454
 3042PW      WP14061  12.257   2.810  12.271  0.3294  0.1232  0.1185
 3042PW      WM14062  12.033   2.683  12.235  0.4167  0.2097 -0.1677
 3043PW       W14063   7.961   2.299   1.098  0.4204 -0.4880 -0.0947
 3043PW      WP14064   7.965   2.213   0.987 -0.3934 -0.7048  0.0129
 3043PW      WM14065   7.877   2.353   0.999 -0.0634 -0.1518  0.4687
 3044PW       W14066   6.558  10.853   4.841  0.0972  0.1585  0.1757
 3044PW      WP14067   6.572  10.948   4.942  0.2209  0.0240  0.2883
 3044PW      WM14068   6.451  10.938   4.812  0.1180  0.0331 -0.3216
 3045PW       W14069   4.175   3.605  10.799  0.2768  0.1308 -0.3865
 3045PW      WP14070   4.289   3.657  10.861  0.4301  0.1289 -0.6614
 3045PW      WM14071   4.043   3.632  10.837  0.1522 -0.4109 -0.4037
 3046PW       W14072   9.193   7.427  11.334  0.1375  0.0694  0.2164
 3046PW      WP14073   9.199   7.567  11.324 -0.4081  0.0995  0.1823
 3046PW      WM14074   9.140   7.375  11.215 -0.1944  0.4067  0.2080
 3047PW       W14075  11.582   0.081   0.084 -0.1752  0.4341  0.8790
 3047PW      WP14076  11.464   0.075   0.009  0.4514 -0.4534 -0.1801
 3047PW      WM14077  11.627   0.214   0.093  0.0961  0.4855 -0.3300
 3048PW       W14078   6.610   1.474   8.483 -0.1077 -0.2622 -0.0639
 3048PW      WP14079   6.524   1.486   8.373 -0.1725  0.3791  0.0381
 3048PW      WM14080   6.590   1.584   8.568  0.4665  0.0337 -0.2852
 3049PW       W14081   4.292  11.797   0.257 -0.2443  0.3105  0.4271
 3049PW      WP14082   4.184  11.707   0.262 -0.0572  0.0799  0.3894
 3049PW      WM14083   4.249  11.905   0.179  0.2814  0.0771 -0.2378
 3050PW       W14084   1.557   0.948   2.726  0.1855 -0.5192 -0.4246
 3050PW      WP14085   1.436   0.907   2.667 -0.3151  0.1296  0.0636
 3050PW      WM14086   1.655   0.851   2.745  0.3443 -0.3599 -0.4200
 3051PW       W14087   4.548   3.051   1.826  0.0317 -0.1566 -0.3907
 3051PW      WP14088   4.444   3.119   1.891  0.1348  0.1190 -0.5079
 3051PW      WM14089   4.465   2.939   1.829  0.0645 -0.1808  0.0366
 3052PW       W14090   9.789  10.817   2.883  0.0131  0.2805 -0.1522
 3052PW      WP14091   9.824  10.683   2.864  0.2953  0.3260  0.0105
 3052PW      WM14092   9.707  10.718   2.937  0.3350  0.0553 -0.0639
 3053PW       W14093   9.109   1.184   2.714  0.0679  0.0435 -0.1513
 3053PW      WP14094   8.972   1.186   2.686 -0.0189 -0.1191  0.2226
 3053PW      WM14095   9.088   1.070   2.792 -0.4218  0.2908  0.1008
 3054PW       W14096   6.458   4.462  11.023 -0.2808  0.0553 -0.2053
 3054PW      WP14097   6.379   4.381  10.941  0.5058 -0.6997 -0.2847
 3054PW      WM14098   6.383   4.561  11.088 -0.6213  0.0774 -0.6085
 3055PW       W14099   2.873   2.273   3.951  0.1510  0.4483  0.1279
 3055PW      WP14100   2.794   2.158   3.963  0.2937  0.3196 -0.1232
 3055PW      WM14101   2.932   2.326   3.836 -0.0446  0.0072 -0.1915
 3056PW       W14102   2.213   5.814   8.391  0.0130 -0.0438 -0.4261
 3056PW      WP14103   2.158   5.686   8.382  0.6862 -0.4161  0.2471
 3056PW      WM14104   2.114   5.908   8.356 -0.0461 -0.0957 -0.3995
 3057PW       W14105   4.280   1.240   1.756 -0.0721  0.1769 -0.0341
 3057PW      WP14106   4.390   1.156   1.777 -0.0958  0.1052 -0.1855
 3057PW      WM14107   4.156   1.283   1.805 -0.1650  0.3295 -0.3879
 3058PW       W14108   2.657   1.973   2.399 -0.0168  0.0101  0.1146
 3058PW      WP14109   2.529   2.006   2.351 -0.0001  0.5643  0.3996
 3058PW      WM14110   2.619   2.071   2.306 -0.3153 -0.1970  0.0102
 3059PW       W14111   9.497   7.181   4.394  0.3552  0.0840  0.1269
 3059PW      WP14112   9.483   7.190   4.533 -0.3627  0.4680  0.0573
 3059PW      WM14113   9.470   7.059   4.332 -0.1177  0.1210  0.2398
 3060PW       W14114   5.919  12.114   3.526  0.3221 -0.0465  0.1403
 3060PW      WP14115   5.893  11.977   3.531 -0.1278  0.0308  0.1788
 3060PW      WM14116   5.894  12.214   3.431 -0.1270 -0.1485  0.1388
 3061PW       W14117   8.541   2.441  10.952  0.0229  0.5354  0.1441
 3061PW      WP14118   8.522   2.328  11.032 -0.1995  0.4990  0.0449
 3061PW      WM14119   8.453   2.550  10.964 -0.1289  0.3883  0.4147
 3062PW       W14120   0.458   2.846   4.135  0.0213  0.2759 -0.0235
 3062PW      WP14121   0.419   2.772   4.023  0.0071  0.4616 -0.1429
 3062PW      WM14122   0.512   2.847   4.264 -0.0627 -0.0397  0.0170
 3063PW       W14123   6.758   3.064   2.082 -0.4121  0.3562 -0.2397
 3063PW      WP14124   6.864   3.146   2.043  0.4060 -0.3199  0.3851
 3063PW      WM14125   6.737   3.032   1.947 -0.1805  0.0642 -0.2115
 3064PW       W14126   5.848  11.917   4.288 -0.2280  0.3950 -0.1610
 3064PW      WP14127   5.776  11.816   4.224 -0.1893 -0.1029  0.5221
 3064PW      WM14128   5.882  11.985   4.406 -0.2895 -0.1930  0.2155
 3065PW       W14129   0.886  11.895   2.806 -0.0433 -0.1157  0.1324
 3065PW      WP14130   0.845  12.028   2.827 -0.4673 -0.2889  0.4859
 3065PW      WM14131   0.863  11.825   2.687  0.1061  0.0262  0.0182
 3066PW       W14132   3.159   5.223   3.043  0.3074  0.4906 -0.0676
 3066PW      WP14133   3.124   5.205   3.178 -0.2718 -0.1927 -0.2755
 3066PW      WM14134   3.067   5.125   3.005  0.4713  0.2435  0.1570
 3067PW       W14135   0.846   9.837   1.968  0.4377 -0.3054  0.3139
 3067PW      WP14136   0.795   9.963   1.936 -0.3107 -0.6287  0.1231
 3067PW      WM14137   0.886   9.861   1.837 -0.3599 -0.1318  0.0725
 3068PW       W14138   5.811   4.437   1.716 -0.2697 -0.2571 -0.2800
 3068PW      WP14139   5.924   4.355   1.703  0.1497  0.2673 -0.1478
 3068PW      WM14140   5.699   4.500   1.660 -0.4813 -0.6423 -0.3079
 3069PW       W14141   7.132   2.039   4.258  0.3445  0.3502  0.3359
 3069PW      WP14142   7.082   1.922   4.318  0.0365  0.4784  0.3399
 3069PW      WM14143   7.190   1.953   4.164 -0.2615 -0.1193  0.3565
 3070PW       W14144  10.050   1.762   1.699 -0.3030  0.0526 -0.1938
 3070PW      WP14145  10.045   1.669   1.594  0.0032 -0.1498 -0.0353
 3070PW      WM14146   9.999   1.653   1.771  0.0626  0.0888  0.1336
 3071PW       W14147   6.846   9.661   9.480 -0.2069  0.2874  0.2033
 3071PW      WP14148   6.897   9.791   9.473  0.1872  0.1299 -0.0038
 3071PW      WM14149   6.839   9.552   9.392 -0.3910  0.6128 -0.2019
 3072PW       W14150  10.203   6.688   8.226  0.0014 -0.2413  0.2552
 3072PW      WP14151  10.287   6.601   8.156  0.1084  0.2408 -0.2495
 3072PW      WM14152  10.221   6.825   8.209  0.0833 -0.2826 -0.0157
 3073PW       W14153   8.655   4.049  10.876 -0.3253 -0.4969 -0.0213
 3073PW      WP14154   8.665   4.094  11.009  0.3500 -0.2159 -0.1485
 3073PW      WM14155   8.684   4.070  10.741 -0.2746  0.1865  0.0767
 3074PW       W14156   1.999   3.316   1.328  0.1532 -0.5391  0.1356
 3074PW      WP14157   1.887   3.277   1.254  0.2403 -0.0818 -0.2607
 3074PW      WM14158   1.951   3.349   1.456 -0.1429  0.5683 -0.2009
 3075PW       W14159  10.322  11.174   4.190 -0.1492 -0.0495 -0.2112
 3075PW      WP14160  10.297  11.050   4.251 -0.3993  0.1324  0.0717
 3075PW      WM14161  10.453  11.207   4.156 -0.0833 -0.0297  0.0494
 3076PW       W14162   4.571   2.577   0.030  0.4530 -0.5144  0.0196
 3076PW      WP14163   4.622   2.586  -0.100  0.2653 -0.1982 -0.0376
 3076PW      WM14164   4.439   2.579   0.077  0.6333  0.5584  0.6463
 3077PW       W14165  11.889   3.803   8.234 -0.2255 -0.3181  0.0723
 3077PW      WP14166  11.844   3.936   8.234 -0.2597 -0.3258 -0.2932
 3077PW      WM14167  11.982   3.710   8.187 -0.2257 -0.0287 -0.5508
 3078PW       W14168   2.729   3.655   1.469 -0.2551  0.3007  0.4114
 3078PW      WP14169   2.662   3.712   1.360  0.0878  0.0669  0.0659
 3078PW      WM14170   2.768   3.564   1.568 -0.1916  0.2118  0.3058
 3079PW       W14171   1.293   5.454   2.760  0.3336  0.1719  0.2850
 3079PW      WP14172   1.286   5.480   2.622 -0.2771  0.2684  0.3217
 3079PW      WM14173   1.205   5.413   2.861  0.1120 -0.0814  0.0002
 3080PW       W14174   8.820   3.468   1.985  0.1052 -0.1408 -0.2898
 3080PW      WP14175   8.911   3.558   1.928  0.1615 -0.1137 -0.1586
 3080PW      WM14176   8.901   3.377   2.056  0.3713  0.2331 -0.0955
 3081PW       W14177   0.914   9.311   1.672 -0.0865  0.2403 -0.0723
 3081PW      WP14178   0.943   9.265   1.544 -0.3781  0.3733 -0.1919
 3081PW      WM14179   0.795   9.378   1.640 -0.1829  0.1371  0.0615
 3082PW       W14180   7.938   4.516  10.143  0.1736 -0.1616 -0.2672
 3082PW      WP14181   7.981   4.642  10.100  0.0311 -0.1014 -0.2358
 3082PW      WM14182   7.856   4.516  10.256 -0.1318  0.3805 -0.4709
 3083PW       W14183   1.571  10.057   9.190  0.0090 -0.0916 -0.1089
 3083PW      WP14184   1.571   9.986   9.311  0.2165 -0.0192 -0.0659
 3083PW      WM14185   1.607  10.189   9.164 -0.0432 -0.0643 -0.0435
 3084PW       W14186   2.014   2.076  10.353 -0.2230  0.3727 -0.3834
 3084PW      WP14187   2.115   2.152  10.294 -0.0925  0.0624 -0.5713
 3084PW      WM14188   1.897   2.069  10.430  0.1828  0.0773  0.2398
 3085PW       W14189  10.516   8.748  13.017 -0.1632 -0.1311 -0.0005
 3085PW      WP14190  10.584   8.716  12.899 -0.1336 -0.5513  0.1237
 3085PW      WM14191  10.553   8.873  13.067  0.1272  0.1458 -0.8164
 3086PW       W14192  11.035   2.575   3.763  0.1272 -0.0304  0.1980
 3086PW      WP14193  11.117   2.660   3.687  0.0967 -0.2943 -0.1437
 3086PW      WM14194  10.993   2.591   3.895 -0.0048  0.2069  0.1303
 3087PW       W14195   3.788   7.087   1.312  0.3379 -0.3188  0.5998
 3087PW      WP14196   3.761   6.957   1.268  0.2031 -0.2115  0.3516
 3087PW      WM14197   3.746   7.190   1.397 -0.2671 -0.3085  0.3156
 3088PW       W14198   8.823   7.726   1.992  0.1604  0.0212  0.1913
 3088PW      WP14199   8.744   7.838   1.961  0.0402 -0.0582  0.2075
 3088PW      WM14200   8.792   7.743   2.127  0.0907  0.4886  0.1280
 3089PW       W14201   9.977  11.015  10.924  0.0694 -0.0825  0.2910
 3089PW      WP14202   9.856  10.946  10.933  0.1826 -0.3133  0.0998
 3089PW      WM14203   9.930  10.901  10.989 -0.1916  0.1453  0.5135
 3090PW       W14204   8.813   9.619   1.778  0.3099 -0.0760 -0.0514
 3090PW      WP14205   8.718   9.721   1.765  0.1914 -0.2040 -0.2218
 3090PW      WM14206   8.804   9.633   1.917  0.1527 -0.2617 -0.0405
 3091PW       W14207   5.052   0.051   0.338 -0.2197  0.1427 -0.0779
 3091PW      WP14208   5.156   0.107   0.412  0.5478 -0.3611 -0.6948
 3091PW      WM14209   5.018   0.140   0.440 -0.1149  0.1616 -0.0584
 3092PW       W14210   0.271   1.559   0.888 -0.0494 -0.0408  0.0711
 3092PW      WP14211   0.369   1.601   0.979 -0.0779 -0.0056  0.0857
 3092PW      WM14212   0.284   1.545   1.027  0.2627  0.0278  0.0525
 3093PW       W14213  11.765  10.315  10.120  0.2952 -0.0212  0.1304
 3093PW      WP14214  11.900  10.301  10.153  0.2991  0.0694  0.1545
 3093PW      WM14215  11.705  10.277   9.999 -0.1852  0.8043  0.0647
 3094PW       W14216   9.112  10.874   4.555  0.0833  0.0951  0.0065
 3094PW      WP14217   9.081  10.941   4.673  0.0377  0.3124 -0.1264
 3094PW      WM14218   9.120  10.771   4.460 -0.5303  0.2480 -0.2344
 3095PW       W14219   2.804   9.126   4.038 -0.0826  0.4323  0.3911
 3095PW      WP14220   2.861   9.003   4.076 -0.1711  0.3226  0.1778
 3095PW      WM14221   2.927   9.140   3.971 -0.1226 -0.3656  0.0948
 3096PW       W14222  11.426   6.255   8.455 -0.3429  0.2665  0.2804
 3096PW      WP14223  11.296   6.302   8.431 -0.0967  0.6178 -0.5440
 3096PW      WM14224  11.452   6.373   8.526  0.0564  0.1307  0.3720
 3097PW       W14225   5.506   9.422   0.998 -0.2565  0.2191  0.1435
 3097PW      WP14226   5.593   9.531   1.013 -0.2060  0.2039 -0.0247
 3097PW      WM14227   5.459   9.390   0.870 -0.1440  0.3659  0.0640
 3098PW       W14228   7.074   1.178   1.693  0.1030  0.3754 -0.1865
 3098PW      WP14229   6.989   1.097   1.616  0.0879  0.2121 -0.0021
 3098PW      WM14230   7.004   1.177   1.572 -0.0489 -0.2970 -0.1107
 3099PW       W14231   7.898   8.739   2.317 -0.0287  0.2281  0.3276
 3099PW      WP14232   7.884   8.856   2.393  0.2037  0.4993 -0.0271
 3099PW      WM14233   7.810   8.654   2.250 -0.0798  0.4096  0.1606
 3100PW       W14234  11.815   1.361   0.713 -0.0930 -0.0391 -0.0098
 3100PW      WP14235  11.946   1.409   0.705  0.0306 -0.2380  0.5783
 3100PW      WM14236  11.908   1.276   0.653 -0.0012  0.1784 -0.1813
 3101PW       W14237   1.634   6.210   0.586  0.1993  0.2959 -0.1130
 3101PW      WP14238   1.513   6.235   0.521  0.0741 -0.3028 -0.1425
 3101PW      WM14239   1.751   6.213   0.509 -0.0375  0.2346 -0.4865
 3102PW       W14240  10.763   0.221   3.104 -0.1139 -0.0206 -0.3716
 3102PW      WP14241  10.737   0.094   3.157  0.3820  0.1859  0.4581
 3102PW      WM14242  10.679   0.221   3.217  0.4389  0.6373  0.0827
 3103PW       W14243   8.908   4.417   4.518 -0.2642  0.5248  0.3583
 3103PW      WP14244   9.014   4.504   4.545 -0.0315  0.2779  0.2622
 3103PW      WM14245   8.792   4.384   4.590 -0.1739 -0.0299  0.2748
 3104PW       W14246   9.269   0.897   3.583  0.0161 -0.4363 -0.1965
 3104PW      WP14247   9.199   0.912   3.703  0.2943  0.1534 -0.0934
 3104PW      WM14248   9.405   0.867   3.596  0.0849  0.0044  0.2197
 3105PW       W14249   8.860   7.950   8.502 -0.1174 -0.0487  0.0419
 3105PW      WP14250   8.735   7.897   8.537 -0.2211  0.0273 -0.1994
 3105PW      WM14251   8.859   7.993   8.369 -0.2986 -0.2458 -0.0234
 3106PW       W14252  11.252   1.670  12.799 -0.0688 -0.1589 -0.1176
 3106PW      WP14253  11.142   1.757  12.804 -0.0893 -0.1764 -0.2429
 3106PW      WM14254  11.324   1.584  12.715  0.0044 -0.1096 -0.1058
 3107PW       W14255   8.659   4.629   4.160 -0.0254 -0.2252  0.4026
 3107PW      WP14256   8.731   4.733   4.101 -0.0769 -0.3021  0.1996
 3107PW      WM14257   8.576   4.646   4.049  0.4386 -0.2652  0.0363
 3108PW       W14258  11.715   0.484   9.123  0.0746  0.1255 -0.1953
 3108PW      WP14259  11.839   0.463   9.184 -0.1231 -0.2614  0.0930
 3108PW      WM14260  11.612   0.390   9.114  0.1513  0.0460 -0.2410
 3109PW       W14261  10.811   4.503   4.538 -0.2510  0.4869  0.3507
 3109PW      WP14262  10.674   4.477   4.550 -0.2802  0.2469 -0.2977
 3109PW      WM14263  10.804   4.594   4.432  0.1436 -0.0665 -0.1870
 3110PW       W14264   5.572   9.492  10.225 -0.1314  0.2093  0.2533
 3110PW      WP14265   5.474   9.394  10.207  0.2906 -0.1585 -0.2020
 3110PW      WM14266   5.506   9.560  10.328 -0.1887  0.5065  0.0274
 3111PW       W14267   2.196   0.666   4.908 -0.2486 -0.5579 -0.1659
 3111PW      WP14268   2.332   0.692   4.928 -0.4459  0.5864  0.0247
 3111PW      WM14269   2.105   0.771   4.896  0.0541 -0.1517  0.7016
 3112PW       W14270   4.479   8.458   5.026  0.4379  0.0239  0.3356
 3112PW      WP14271   4.608   8.405   5.038  0.5767  0.2504 -0.0672
 3112PW      WM14272   4.560   8.570   5.008  0.2671  0.0916 -0.0583
 3113PW       W14273   9.794   6.463   8.937 -0.4361 -0.1103 -0.3856
 3113PW      WP14274   9.897   6.491   9.028 -0.2674 -0.2265 -0.5368
 3113PW      WM14275   9.818   6.372   9.041 -0.2689  0.2965 -0.0549
 3114PW       W14276   0.789   5.696   2.733  0.2785 -0.2046  0.2791
 3114PW      WP14277   0.771   5.584   2.651 -0.2230  0.2093 -0.2134
 3114PW      WM14278   0.715   5.780   2.649 -0.1668 -0.7993  0.0344
 3115PW       W14279   2.972   5.633   0.614  0.3427 -0.1415 -0.0999
 3115PW      WP14280   2.869   5.609   0.706  0.0873  0.0721 -0.3217
 3115PW      WM14281   3.037   5.721   0.702  0.1846 -0.5411  0.4462
 3116PW       W14282   1.269   4.330   1.974 -0.0405 -0.3466 -0.4834
 3116PW      WP14283   1.247   4.320   2.111 -0.0768 -0.0585 -0.4656
 3116PW      WM14284   1.360   4.400   1.894  0.0470 -0.0093 -0.1059
 3117PW       W14285   1.548   5.782   1.467  0.4257  0.0392 -0.0345
 3117PW      WP14286   1.487   5.682   1.390  0.7181  0.1105 -0.3728
 3117PW      WM14287   1.522   5.798   1.603 -0.0489 -0.3341 -0.0675
 3118PW       W14288  10.654   2.966   0.006  0.0438 -0.1545 -0.2899
 3118PW      WP14289  10.779   2.971  -0.056  0.0019 -0.0892 -0.3710
 3118PW      WM14290  10.608   3.052   0.107  0.0149 -0.6001  0.0925
 3119PW       W14291   0.724   5.569  13.254  0.0449  0.0088  0.5123
 3119PW      WP14292   0.779   5.625  13.138 -0.2953 -0.4188  0.1272
 3119PW      WM14293   0.636   5.677  13.252  0.1738  0.1153  0.1676
 3120PW       W14294  10.915  11.117   2.759  0.0157 -0.0163  0.1822
 3120PW      WP14295  10.848  11.207   2.675  0.4486  0.2117  0.0657
 3120PW      WM14296  10.912  11.236   2.833  0.1941  0.2469 -0.2131
 3121PW       W14297   8.898   7.820  12.147  0.5592 -0.0305  0.3125
 3121PW      WP14298   8.874   7.954  12.180  0.1653  0.2061 -0.7257
 3121PW      WM14299   8.892   7.766  12.276  0.0331  0.0924  0.3501
 3122PW       W14300   3.586   0.626  12.803 -0.2140  0.1878  0.0579
 3122PW      WP14301   3.609   0.490  12.780 -0.7776  0.0870  0.0381
 3122PW      WM14302   3.539   0.656  12.931  0.1978 -0.3480  0.3558
 3123PW       W14303   3.716   5.889   3.522 -0.3490 -0.2571 -0.0713
 3123PW      WP14304   3.605   5.972   3.503 -0.2601 -0.1113  0.0353
 3123PW      WM14305   3.808   5.853   3.423  0.0846 -0.2315  0.3069
 3124PW       W14306   8.241   5.971   3.935 -0.3407  0.0149  0.1108
 3124PW      WP14307   8.366   6.009   3.984 -0.2926 -0.2540  0.2063
 3124PW      WM14308   8.164   5.925   4.043  0.0506  0.0319  0.4071
 3125PW       W14309  11.103   9.021   9.284  0.1427  0.3732  0.0619
 3125PW      WP14310  11.050   9.148   9.311  0.0993  0.3771 -0.0383
 3125PW      WM14311  11.033   8.922   9.215 -0.0993  0.5496  0.0464
 3126PW       W14312   0.465   3.654   1.646  0.0966 -0.1663 -0.4989
 3126PW      WP14313   0.375   3.598   1.738  0.3420  0.1344 -0.0570
 3126PW      WM14314   0.532   3.532   1.636  0.6977  0.0662  0.2506
 3127PW       W14315   6.138   8.539  11.154  0.1342 -0.2242  0.2622
 3127PW      WP14316   6.267   8.489  11.135  0.3992  0.3372  0.4805
 3127PW      WM14317   6.141   8.582  11.021  0.2931 -0.1147  0.2996
 3128PW       W14318   6.143   6.252   2.706 -0.1662 -0.2872  0.0959
 3128PW      WP14319   6.077   6.374   2.691  0.4220  0.0519  0.0878
 3128PW      WM14320   6.257   6.192   2.651 -0.1275 -0.1852  0.0621
 3129PW       W14321  11.741  11.138  13.157 -0.1304 -0.0794  0.2244
 3129PW      WP14322  11.874  11.109  13.190  0.1222  0.2024 -0.4481
 3129PW      WM14323  11.682  11.015  13.128  0.1685 -0.2212  0.1941
 3130PW       W14324   0.156   8.750   0.486 -0.4588 -0.1377 -0.4223
 3130PW      WP14325   0.075   8.698   0.588  0.3520 -0.4000  0.1380
 3130PW      WM14326   0.210   8.651   0.404  0.4512  0.0012 -0.0536
 3131PW       W14327  10.347   8.449   4.153  0.1204 -0.2127  0.1848
 3131PW      WP14328  10.214   8.463   4.194  0.0578 -0.0033 -0.0782
 3131PW      WM14329  10.469   8.474   4.217 -0.0479  0.0862  0.4002
 3132PW       W14330  11.719   7.789   0.062  0.2738  0.2452 -0.3220
 3132PW      WP14331  11.633   7.855   0.150  0.2044  0.0167 -0.2143
 3132PW      WM14332  11.715   7.667  -0.007 -0.0949  0.0924 -0.0498
 3133PW       W14333   0.624   4.969   3.753 -0.2569  0.2667  0.1131
 3133PW      WP14334   0.486   4.949   3.764 -0.3300  0.2944 -0.5671
 3133PW      WM14335   0.741   4.991   3.680  0.2627  0.0130  0.8109
 3134PW       W14336  12.087   4.296   2.747 -0.1444 -0.1966 -0.1433
 3134PW      WP14337  12.105   4.420   2.686  0.1958 -0.1362  0.0682
 3134PW      WM14338  11.964   4.264   2.688 -0.1584  0.0923 -0.2802
 3135PW       W14339   0.230  10.269   0.064  0.2250 -0.5834 -0.0710
 3135PW      WP14340   0.207  10.218   0.192  0.4426  0.1293  0.2801
 3135PW      WM14341   0.307  10.347   0.152 -0.0097  0.2039 -0.5177
 3136PW       W14342   6.107  10.988   1.425  0.2741  0.0702 -0.2295
 3136PW      WP14343   6.220  11.018   1.347  0.7484 -0.4697  0.1991
 3136PW      WM14344   5.974  10.947   1.423  0.2849  0.0421 -0.6367
 3137PW       W14345   6.390   9.415  11.980 -0.1197 -0.3177 -0.1374
 3137PW      WP14346   6.496   9.490  11.927 -0.1672 -0.2823 -0.1842
 3137PW      WM14347   6.383   9.412  11.840 -0.3804  0.5856 -0.1805
 3138PW       W14348   2.325   8.353  11.487  0.3775 -0.0147 -0.3664
 3138PW      WP14349   2.287   8.223  11.523 -0.0117  0.1269 -0.2450
 3138PW      WM14350   2.389   8.280  11.385  0.3926 -0.2380 -0.2018
 3139PW       W14351  11.588   8.131   3.819  0.1560  0.1100 -0.0654
 3139PW      WP14352  11.465   8.145   3.753 -0.1160 -0.2857  0.3252
 3139PW      WM14353  11.719   8.109   3.776  0.0728  0.2011 -0.3793
 3140PW       W14354   2.713   1.375   0.804 -0.4201  0.0756 -0.0928
 3140PW      WP14355   2.763   1.408   0.677 -0.2870 -0.2998 -0.1421
 3140PW      WM14356   2.646   1.487   0.856 -0.0574  0.0912  0.3759
 3141PW       W14357  11.691   1.897   4.657  0.1777 -0.0158  0.3206
 3141PW      WP14358  11.584   1.828   4.713 -0.1654  0.3655  0.1621
 3141PW      WM14359  11.815   1.831   4.655  0.0624 -0.2672  0.7536
 3142PW       W14360   2.786   5.845   9.560  0.0793  0.3364 -0.1352
 3142PW      WP14361   2.717   5.937   9.640  0.4803  0.0424  0.5961
 3142PW      WM14362   2.717   5.771   9.464  0.1966 -0.1997  0.1747
 3143PW       W14363   1.427   9.185  10.554  0.4503  0.1498  0.1444
 3143PW      WP14364   1.392   9.191  10.689 -0.5023  0.4411 -0.0794
 3143PW      WM14365   1.499   9.228  10.442 -0.0546  0.3146 -0.1326
 3144PW       W14366   4.446   8.302   3.305  0.1750 -0.1539  0.1209
 3144PW      WP14367   4.584   8.326   3.307  0.0812  0.4217  0.3800
 3144PW      WM14368   4.468   8.365   3.182  0.4006 -0.6129 -0.0856
 3145PW       W14369  10.852   5.879   2.402 -0.0552  0.5000  0.2142
 3145PW      WP14370  10.881   5.990   2.322 -0.0022  0.2911 -0.0641
 3145PW      WM14371  10.816   5.960   2.294 -0.1647 -0.0155 -0.1536
 3146PW       W14372   1.709   1.878   2.945  0.1229 -0.2944 -0.0747
 3146PW      WP14373   1.590   1.880   3.019 -0.0579 -0.4135 -0.3539
 3146PW      WM14374   1.728   2.002   2.883  0.3025 -0.2329  0.0975
 3147PW       W14375   9.763   5.327   4.808 -0.0833 -0.3538  0.1590
 3147PW      WP14376   9.888   5.267   4.826  0.0227 -0.0726  0.3983
 3147PW      WM14377   9.641   5.391   4.786  0.2353  0.1127 -0.3769
 3148PW       W14378   6.886   3.782  13.256 -0.1565  0.0460  0.0565
 3148PW      WP14379   6.966   3.677  13.303 -0.1443  0.1464  0.2620
 3148PW      WM14380   6.787   3.867  13.306  0.0562  0.3765 -0.0667
 3149PW       W14381   9.449   0.065   1.665  0.2357  0.0657 -0.1037
 3149PW      WP14382   9.424   0.085   1.802 -0.1092 -0.3793 -0.0879
 3149PW      WM14383   9.354   0.096   1.567  0.0612 -0.0779  0.0167
 3150PW       W14384   0.067   0.189   2.454 -0.2634  0.1290  0.1008
 3150PW      WP14385   0.149   0.269   2.534  0.2707  0.1627 -0.4363
 3150PW      WM14386   0.007   0.315   2.448  0.1798  0.3468 -0.0593
 3151PW       W14387   2.654   1.757   3.268  0.1331 -0.0171 -0.0362
 3151PW      WP14388   2.552   1.834   3.211  0.0782 -0.0704 -0.0105
 3151PW      WM14389   2.757   1.786   3.358  0.1622 -0.1863 -0.0145
 3152PW       W14390   6.873   7.573  10.260 -0.3161 -0.0989 -0.1240
 3152PW      WP14391   6.752   7.554  10.329 -0.2859  0.3149  0.0596
 3152PW      WM14392   6.861   7.463  10.174  0.0209  0.1109 -0.4529
 3153PW       W14393   6.478  10.751   2.385  0.2262  0.0934 -0.0650
 3153PW      WP14394   6.482  10.780   2.249  0.0362 -0.1184 -0.1188
 3153PW      WM14395   6.544  10.633   2.347 -0.0256 -0.0323 -0.1195
 3154PW       W14396   0.867   1.642   9.940 -0.0679  0.1647 -0.0209
 3154PW      WP14397   0.763   1.663  10.032  0.1570 -0.0117  0.2829
 3154PW      WM14398   0.858   1.513   9.994 -0.1818  0.0602 -0.2846
 3155PW       W14399   7.650  11.656   3.379  0.2696 -0.3987 -0.2074
 3155PW      WP14400   7.755  11.747   3.362 -0.2749  0.3157 -0.0107
 3155PW      WM14401   7.563  11.656   3.270 -0.0714  0.3885  0.0292
 3156PW       W14402   2.337   5.383  11.212  0.2520 -0.0722  0.0721
 3156PW      WP14403   2.307   5.416  11.079  0.1830  0.1631  0.1438
 3156PW      WM14404   2.320   5.274  11.299  0.0002 -0.0241  0.0862
 3157PW       W14405   6.520  10.061   9.391 -0.1417 -0.0548  0.0635
 3157PW      WP14406   6.389  10.039   9.434 -0.0891  0.1244  0.3321
 3157PW      WM14407   6.403  10.136   9.377 -0.1483 -0.0489  0.1463
 3158PW       W14408   9.450   8.238   2.639  0.1731 -0.1680  0.1359
 3158PW      WP14409   9.463   8.365   2.697  0.0107 -0.2044  0.2547
 3158PW      WM14410   9.407   8.198   2.766  0.2465  0.1664  0.2726
 3159PW       W14411   9.664   6.029   8.234  0.1630  0.1858 -0.5075
 3159PW      WP14412   9.795   6.035   8.281  0.0010  0.1279 -0.0137
 3159PW      WM14413   9.668   6.090   8.360 -0.2833  0.2001 -0.4898
 3160PW       W14414   3.088   1.169   4.089 -0.1047  0.1822 -0.0401
 3160PW      WP14415   3.221   1.130   4.069 -0.0949  0.3130 -0.2524
 3160PW      WM14416   2.983   1.225   4.163 -0.0460  0.0175  0.1724
 3161PW       W14417  10.559   3.701  12.790 -0.3921 -0.1954  0.2060
 3161PW      WP14418  10.640   3.703  12.903 -0.1455 -0.5291  0.0452
 3161PW      WM14419  10.516   3.572  12.823 -0.2750 -0.4076 -0.4052
 3162PW       W14420   6.611   0.945   1.589 -0.1034  0.2976  0.1760
 3162PW      WP14421   6.534   1.000   1.486  0.0549 -0.2056 -0.2328
 3162PW      WM14422   6.636   0.817   1.537 -0.2431  0.3417 -0.0071
 3163PW       W14423   4.530   1.316  13.245 -0.0154  0.0791  0.1895
 3163PW      WP14424   4.446   1.359  13.350 -0.1613  0.3857 -0.0426
 3163PW      WM14425   4.451   1.379  13.148  0.3586  0.2095 -0.0404
 3164PW       W14426   4.383   3.188  10.930 -0.2686 -0.1297 -0.1495
 3164PW      WP14427   4.464   3.130  11.029 -0.0666  0.3088 -0.0433
 3164PW      WM14428   4.318   3.125  11.037 -0.3247  0.2320  0.0394
 3165PW       W14429   1.930  11.630  12.939  0.1205 -0.0469 -0.3374
 3165PW      WP14430   2.031  11.638  12.842  0.5923 -0.3178  0.1089
 3165PW      WM14431   1.793  11.604  12.945  0.1965 -0.4534 -0.2195
 3166PW       W14432   4.642   2.337   0.620 -0.1655 -0.1614 -0.1192
 3166PW      WP14433   4.590   2.223   0.558  0.0374 -0.3603  0.0667
 3166PW      WM14434   4.711   2.439   0.554  0.1027 -0.1698  0.1375
 3167PW       W14435   9.946   9.558  12.931 -0.1013 -0.6188 -0.0460
 3167PW      WP14436   9.865   9.610  12.829  0.4615  0.0650 -0.1854
 3167PW      WM14437   9.855   9.461  12.975 -0.4381 -0.1617  0.3104
 3168PW       W14438  10.181   3.046  11.903  0.0326  0.2359 -0.1805
 3168PW      WP14439  10.183   3.148  11.998  0.1535  0.1419 -0.0818
 3168PW      WM14440  10.237   2.971  11.799  0.0010  0.4549 -0.3605
 3169PW       W14441   4.980   9.918   1.351  0.1387  0.1424 -0.2353
 3169PW      WP14442   5.080   9.886   1.443 -0.0243 -0.5277 -0.2701
 3169PW      WM14443   4.925   9.793   1.323  0.0839  0.1088  0.0039
 3170PW       W14444   5.759   2.327   2.536 -0.1493  0.3596  0.0774
 3170PW      WP14445   5.774   2.294   2.400 -0.1566 -0.4184  0.2448
 3170PW      WM14446   5.842   2.216   2.512 -0.1865  0.3134  0.1595
 3171PW       W14447   7.528   0.238  12.003  0.2809  0.1129  0.2429
 3171PW      WP14448   7.395   0.221  11.963  0.3656  0.4370 -0.2182
 3171PW      WM14449   7.554   0.207  12.137 -0.1371  0.1108  0.3309
 3172PW       W14450   7.654   3.714   1.544  0.0627 -0.5105  0.0214
 3172PW      WP14451   7.627   3.723   1.407 -0.0723  0.2768  0.0709
 3172PW      WM14452   7.790   3.683   1.530  0.2256  0.1389 -0.0281
 3173PW       W14453   0.209  10.203   0.934 -0.0581  0.0483  0.3024
 3173PW      WP14454   0.114  10.265   1.015 -0.1975 -0.0303  0.2015
 3173PW      WM14455   0.239  10.092   0.854 -0.1429 -0.0690  0.4297
 3174PW       W14456   0.207   7.974   1.634 -0.1518  0.1247  0.0070
 3174PW      WP14457   0.067   7.985   1.635 -0.2090 -0.4548  0.0016
 3174PW      WM14458   0.205   7.990   1.773 -0.5223 -0.0554  0.0283
 3175PW       W14459   9.558   7.652   9.550  0.2827 -0.2501  0.2697
 3175PW      WP14460   9.516   7.541   9.625 -0.2924 -0.5049 -0.3702
 3175PW      WM14461   9.598   7.612   9.422  0.1954  0.1800  0.1011
 3176PW       W14462   9.176   6.918   2.784 -0.1838 -0.1498 -0.1475
 3176PW      WP14463   9.164   6.806   2.866  0.1302 -0.0261  0.0750
 3176PW      WM14464   9.125   7.019   2.867  0.1725 -0.2937  0.2598
 3177PW       W14465   3.033   6.634   9.131 -0.0699 -0.1070  0.0592
 3177PW      WP14466   2.990   6.521   9.060  0.2592 -0.0790 -0.2004
 3177PW      WM14467   2.909   6.695   9.112  0.0027  0.0802  0.1768
 3178PW       W14468  11.876   8.915  13.042 -0.2259 -0.0484 -0.2715
 3178PW      WP14469  11.973   8.823  13.083 -0.1939  0.1988  0.2479
 3178PW      WM14470  11.951   8.823  12.967  0.5645  0.3696 -0.0557
 3179PW       W14471   7.896   3.801   9.880  0.1513 -0.0527  0.1157
 3179PW      WP14472   8.027   3.847   9.900  0.1374  0.1915 -0.3076
 3179PW      WM14473   7.962   3.682   9.849  0.0017 -0.1573  0.1891
 3180PW       W14474   8.017   7.279   0.535  0.0278  0.2875 -0.1273
 3180PW      WP14475   8.152   7.253   0.508  0.0993  0.3412  0.1591
 3180PW      WM14476   7.879   7.298   0.546  0.0245  0.0896  0.2658
 3181PW       W14477   1.484   6.792   4.966  0.4441 -0.3140 -0.0838
 3181PW      WP14478   1.567   6.754   5.072 -0.0588 -0.4093  0.2976
 3181PW      WM14479   1.384   6.695   4.950  0.0664  0.1054 -0.4618
 3182PW       W14480   5.228   0.182   3.059  0.1393  0.0586  0.4871
 3182PW      WP14481   5.099   0.164   3.109  0.1465 -0.1774  0.4244
 3182PW      WM14482   5.201   0.089   2.958 -0.0417  0.3189  0.2895
 3183PW       W14483   2.734   6.530   4.317  0.0343 -0.2689 -0.2565
 3183PW      WP14484   2.747   6.667   4.345  0.5939 -0.2931 -0.3369
 3183PW      WM14485   2.751   6.425   4.407 -0.3370 -0.4299 -0.3636
 3184PW       W14486   8.178   1.412   2.402 -0.3459  0.6234  0.1098
 3184PW      WP14487   8.124   1.448   2.278  0.0137 -0.0183 -0.2589
 3184PW      WM14488   8.085   1.448   2.501 -0.4099  0.2841  0.1800
 3185PW       W14489   8.481   3.660   9.970 -0.1191 -0.0105  0.1205
 3185PW      WP14490   8.408   3.697  10.084  0.1582  0.2111  0.2317
 3185PW      WM14491   8.529   3.552  10.046  0.2674  0.2544  0.2662
 3186PW       W14492   8.838  10.237   1.858  0.2753 -0.1171  0.1059
 3186PW      WP14493   8.886  10.250   1.989  0.0798  0.0712  0.1619
 3186PW      WM14494   8.759  10.143   1.791  0.2291 -0.2812  0.3837
 3187PW       W14495   3.491   7.622   3.999  0.1557 -0.6227  0.2144
 3187PW      WP14496   3.427   7.573   3.884  0.1895 -0.2363  0.0250
 3187PW      WM14497   3.491   7.749   4.058  0.0576 -0.3438 -0.3544
 3188PW       W14498   8.636   7.099   4.542 -0.2703  0.0772 -0.1132
 3188PW      WP14499   8.546   7.140   4.642 -0.4338 -0.0796 -0.1923
 3188PW      WM14500   8.653   6.964   4.579  0.0722  0.2315  0.3474
 3189PW       W14501   6.944   6.369  12.156  0.2030 -0.0461 -0.4110
 3189PW      WP14502   6.864   6.435  12.251  0.5567  0.1139 -0.2152
 3189PW      WM14503   6.916   6.271  12.252  0.4321  0.4107  0.1593
 3190PW       W14504   4.348   0.379  11.860 -0.1447 -0.0094 -0.4684
 3190PW      WP14505   4.409   0.305  11.758  0.2262 -0.1543 -0.1540
 3190PW      WM14506   4.208   0.370  11.865 -0.1864  0.5728 -0.2806
 3191PW       W14507   8.337  11.353   9.600  0.3666  0.3329 -0.2724
 3191PW      WP14508   8.429  11.386   9.699  0.4428 -0.0313 -0.2119
 3191PW      WM14509   8.269  11.285   9.498  0.1828  0.4355 -0.2188
 3192PW       W14510   5.063  10.606   2.931 -0.1681  0.2316 -0.5938
 3192PW      WP14511   5.062  10.737   2.981 -0.0842  0.0267 -0.0222
 3192PW      WM14512   5.147  10.540   3.022  0.0370  0.4677 -0.6071
 3193PW       W14513   6.390   0.181   3.458 -0.2450 -0.3192 -0.0301
 3193PW      WP14514   6.495   0.168   3.550 -0.0491  0.6104 -0.0753
 3193PW      WM14515   6.311   0.073   3.415  0.0965 -0.5732 -0.0452
 3194PW       W14516   6.069   8.515   8.197 -0.4783  0.3726  0.2117
 3194PW      WP14517   6.156   8.554   8.094  0.0241 -0.1422  0.4191
 3194PW      WM14518   6.067   8.543   8.334 -0.4863  0.0783  0.2749
 3195PW       W14519   0.548   6.953   0.451 -0.2122 -0.0875  0.0927
 3195PW      WP14520   0.574   6.825   0.500  0.0463 -0.0246  0.1294
 3195PW      WM14521   0.465   7.042   0.382 -0.1398 -0.2077 -0.1547
 3196PW       W14522   3.455   2.375   4.627 -0.1604 -0.0492  0.4661
 3196PW      WP14523   3.410   2.335   4.753 -0.2748  0.0558  0.4596
 3196PW      WM14524   3.526   2.258   4.602 -0.1096  0.1169 -0.2976
 3197PW       W14525   5.648   7.902   9.169  0.1086 -0.1325 -0.2260
 3197PW      WP14526   5.647   7.771   9.218  0.6142  0.0133  0.2336
 3197PW      WM14527   5.537   7.969   9.222  0.2202  0.1451 -0.3347
 3198PW       W14528  10.265   4.810  11.654  0.1811  0.0633  0.0422
 3198PW      WP14529  10.354   4.895  11.587  0.0955  0.1701  0.0620
 3198PW      WM14530  10.130   4.847  11.660  0.0686 -0.3232  0.0038
 3199PW       W14531   7.654   3.700  10.685 -0.1213 -0.0283 -0.2472
 3199PW      WP14532   7.755   3.620  10.739 -0.1136  0.2394  0.1553
 3199PW      WM14533   7.671   3.622  10.569  0.6763  0.2644 -0.3556
 3200PW       W14534   0.810  11.103   9.602  0.0231 -0.1236 -0.2737
 3200PW      WP14535   0.786  10.966   9.595 -0.1759 -0.1002 -0.1217
 3200PW      WM14536   0.671  11.118   9.593 -0.0259  0.1227  0.5150
 3201PW       W14537   1.876   5.692  12.424 -0.0938 -0.0009  0.0753
 3201PW      WP14538   1.747   5.654  12.385 -0.0130 -0.0095 -0.1947
 3201PW      WM14539   1.875   5.678  12.285  0.1837  0.1990  0.0511
 3202PW       W14540   8.446   1.885   3.169  0.1434 -0.3404 -0.4202
 3202PW      WP14541   8.355   1.792   3.220 -0.0552 -0.1092 -0.3416
 3202PW      WM14542   8.479   1.758   3.119 -0.1862 -0.2785 -0.8215
 3203PW       W14543   6.676   7.615   9.144  0.0078  0.1645 -0.0081
 3203PW      WP14544   6.766   7.719   9.172  0.2959  0.0920 -0.5831
 3203PW      WM14545   6.567   7.607   9.231 -0.1737 -0.1458 -0.2562
 3204PW       W14546   2.750   7.941   1.654  0.2022  0.3865  0.3994
 3204PW      WP14547   2.625   8.002   1.645 -0.1166 -0.2751 -0.1183
 3204PW      WM14548   2.864   8.001   1.599  0.2488 -0.1794 -0.1774
 3205PW       W14549   2.012   7.450   3.385  0.5783 -0.4618 -0.4215
 3205PW      WP14550   2.026   7.537   3.276 -0.2332  0.1725 -0.0813
 3205PW      WM14551   2.025   7.475   3.248  0.4261 -0.3369 -0.4156
 3206PW       W14552   2.323   6.437   1.312 -0.1989  0.1408  0.0223
 3206PW      WP14553   2.440   6.447   1.235 -0.3957  0.4241 -0.2529
 3206PW      WM14554   2.186   6.436   1.281 -0.1045 -0.3761 -0.4589
 3207PW       W14555   2.334   9.151  11.101 -0.2528  0.0322  0.0759
 3207PW      WP14556   2.202   9.120  11.066 -0.0815  0.0335 -0.6346
 3207PW      WM14557   2.448   9.231  11.113 -0.1848 -0.1054  0.3904
 3208PW       W14558   0.969   6.216   0.738 -0.1303  0.3555  0.2141
 3208PW      WP14559   0.981   6.329   0.656 -0.3880  0.0495 -0.2682
 3208PW      WM14560   1.070   6.210   0.836 -0.0367  0.1737  0.1099
 3209PW       W14561   9.269  11.351   8.907  0.0279 -0.1325 -0.1249
 3209PW      WP14562   9.175  11.277   8.834  0.1249 -0.3508 -0.0324
 3209PW      WM14563   9.279  11.308   9.040 -0.3040 -0.3324 -0.1590
 3210PW       W14564   6.002   0.607  12.268  0.2034  0.1418  0.1579
 3210PW      WP14565   5.949   0.710  12.188 -0.0623 -0.3163 -0.2845
 3210PW      WM14566   6.038   0.721  12.341  0.4416 -0.1083  0.4424
 3211PW       W14567   6.682   9.681   4.575 -0.4299  0.1592 -0.2752
 3211PW      WP14568   6.699   9.579   4.670  0.4237  0.1646 -0.3863
 3211PW      WM14569   6.614   9.778   4.649 -0.2125 -0.1416  0.3540
 3212PW       W14570  -0.008   3.492   3.652 -0.1074 -0.2770  0.0542
 3212PW      WP14571   0.118   3.552   3.638 -0.2152  0.1337  0.6388
 3212PW      WM14572   0.022   3.400   3.753  0.5614  0.0289  0.1648
 3213PW       W14573   1.920   2.315   8.950  0.0222  0.4385 -0.2560
 3213PW      WP14574   1.843   2.400   9.031 -0.1727  0.1079 -0.0871
 3213PW      WM14575   2.031   2.275   9.025 -0.3741 -0.1676  0.0365
 3214PW       W14576   3.664  10.046   9.935 -0.3758 -0.1134 -0.2575
 3214PW      WP14577   3.714  10.001   9.812 -0.0518  0.0910 -0.2065
 3214PW      WM14578   3.727   9.940  10.000  0.5222  0.3625 -0.2698
 3215PW       W14579   7.769   8.809   2.784 -0.2596 -0.1036 -0.2222
 3215PW      WP14580   7.876   8.753   2.712 -0.1296 -0.3868  0.1742
 3215PW      WM14581   7.700   8.694   2.824 -0.6589  0.2899  0.2815
 3216PW       W14582   2.188   0.161  10.037 -0.0190  0.4159  0.2040
 3216PW      WP14583   2.326   0.146  10.059  0.0289  0.2241 -0.1912
 3216PW      WM14584   2.147   0.180   9.905 -0.1644  0.0427  0.1914
 3217PW       W14585   3.885   9.469  12.944 -0.1601 -0.1679  0.3271
 3217PW      WP14586   3.947   9.476  13.070 -0.0818  0.3048  0.2728
 3217PW      WM14587   3.777   9.528  12.878  0.5164  0.1906 -0.5755
 3218PW       W14588   9.409   7.259  13.058 -0.0267 -0.0520 -0.1400
 3218PW      WP14589   9.444   7.337  13.169 -0.0026 -0.1435 -0.0828
 3218PW      WM14590   9.433   7.380  12.991 -0.2470  0.1060  0.0617
 3219PW       W14591   5.946  10.616   0.391  0.2046 -0.7254  0.1843
 3219PW      WP14592   6.057  10.655   0.468 -0.1741 -0.2156  0.5004
 3219PW      WM14593   5.832  10.695   0.409  0.5064 -0.1696 -0.1845
 3220PW       W14594   9.869  10.815  11.809 -0.2379  0.6380  0.1696
 3220PW      WP14595   9.736  10.775  11.825  0.0581 -0.7603 -0.1836
 3220PW      WM14596   9.941  10.876  11.913  0.0967  0.2073  0.2050
 3221PW       W14597  10.878   0.420  12.839 -0.0050 -0.2232  0.0159
 3221PW      WP14598  10.830   0.535  12.902 -0.2057 -0.3928  0.1800
 3221PW      WM14599  10.749   0.378  12.872  0.2079 -1.0979 -0.1272
 3222PW       W14600  11.892   2.502   2.714 -0.0816 -0.3694  0.0145
 3222PW      WP14601  11.816   2.530   2.827 -0.3021 -0.2313 -0.1656
 3222PW      WM14602  11.999   2.562   2.645 -0.0206 -0.5852 -0.0843
 3223PW       W14603   9.020   1.953  11.473  0.2664  0.1972 -0.4987
 3223PW      WP14604   8.988   2.074  11.536  0.1904 -0.0045 -0.1349
 3223PW      WM14605   8.938   1.844  11.503  0.5410  0.0550 -0.2425
 3224PW       W14606   2.691   3.809  12.348 -0.1010 -0.1788 -0.1864
 3224PW      WP14607   2.776   3.912  12.389 -0.2051 -0.1122 -0.1357
 3224PW      WM14608   2.557   3.842  12.324 -0.2330 -0.4330  0.1527
 3225PW       W14609   6.219   5.960   8.959  0.1309 -0.2451 -0.1864
 3225PW      WP14610   6.177   6.000   8.831  0.1454 -0.3283 -0.2174
 3225PW      WM14611   6.323   6.054   8.961  0.0525 -0.1584  0.2538
 3226PW       W14612   8.876   7.539   8.835  0.3446 -0.1572 -0.0866
 3226PW      WP14613   8.924   7.669   8.852 -0.4896  0.1678 -0.0067
 3226PW      WM14614   8.742   7.502   8.827  0.2333  0.2262 -0.0890
 3227PW       W14615   2.717   4.525   3.972  0.1433  0.6609  0.5837
 3227PW      WP14616   2.590   4.466   3.969  0.6646 -0.6077  0.3135
 3227PW      WM14617   2.657   4.646   3.936 -0.3355  0.1584 -0.5462
 3228PW       W14618   3.267   6.696   5.602  0.2402 -0.2940 -0.5515
 3228PW      WP14619   3.203   6.821   5.594 -0.3172 -0.5177 -0.0063
 3228PW      WM14620   3.141   6.758   5.600  0.5889  0.5124 -0.0418
 3229PW       W14621   3.887   5.011   9.190  0.3313  0.1490 -0.3949
 3229PW      WP14622   3.882   4.893   9.114  0.0409  0.0034 -0.1606
 3229PW      WM14623   3.771   5.076   9.149 -0.2351 -0.2997  0.3563
 3230PW       W14624   3.323   5.605   5.652 -0.5072 -0.3596  0.0873
 3230PW      WP14625   3.203   5.551   5.701 -0.6304 -0.1618  0.0111
 3230PW      WM14626   3.331   5.466   5.670 -0.1984 -0.3818 -0.1800
 3231PW       W14627   6.415   2.059   3.515  0.1843 -0.1209 -0.0034
 3231PW      WP14628   6.513   2.154   3.547  0.1547 -0.0168 -0.2159
 3231PW      WM14629   6.513   1.959   3.529  0.0410 -0.2384  0.1828
 3232PW       W14630   0.270   2.451  12.541  0.1846  0.1511 -0.0432
 3232PW      WP14631   0.287   2.359  12.437 -0.3590 -0.2672  0.2152
 3232PW      WM14632   0.133   2.440  12.565  0.1845 -0.1643 -0.1582
 3233PW       W14633   2.692   0.299  10.010 -0.0812 -0.1559  0.3289
 3233PW      WP14634   2.826   0.309  10.049 -0.0777  0.1897  0.2415
 3233PW      WM14635   2.619   0.182   9.985 -0.3340  0.1414 -0.4879
 3234PW       W14636   7.333  10.893   0.158  0.0178 -0.2428 -0.0558
 3234PW      WP14637   7.408  10.975   0.074 -0.2539 -0.3668 -0.4342
 3234PW      WM14638   7.234  10.874   0.060 -0.0250  0.0094 -0.0645
 3235PW       W14639  10.404   4.580  12.345 -0.2065  0.0468 -0.5358
 3235PW      WP14640  10.278   4.622  12.298 -0.4212 -0.0411 -0.0666
 3235PW      WM14641  10.428   4.716  12.320  0.2142  0.0634 -0.0903
 3236PW       W14642   4.861   5.061   3.501 -0.2124  0.5457  0.2072
 3236PW      WP14643   4.961   5.107   3.415  0.0545  0.1365  0.2811
 3236PW      WM14644   4.964   5.040   3.593  0.4668  0.1069 -0.5826
 3237PW       W14645  10.568   2.268   2.253  0.2715  0.3887  0.5910
 3237PW      WP14646  10.654   2.162   2.285 -0.1046 -0.2268 -0.2700
 3237PW      WM14647  10.574   2.135   2.209  0.0045  0.4658  0.3055
 3238PW       W14648   7.175   5.265  10.785 -0.6336  0.3043 -0.0111
 3238PW      WP14649   7.241   5.357  10.704 -0.3420  0.1198  0.0119
 3238PW      WM14650   7.265   5.345  10.856  0.7984 -0.5394 -0.6703
 3239PW       W14651   5.962   1.354   3.803  0.2247  0.0072  0.1321
 3239PW      WP14652   6.017   1.234   3.758  0.0539  0.1228 -0.4361
 3239PW      WM14653   5.857   1.446   3.783  0.4877  0.2092 -0.4232
 3240PW       W14654   2.672   5.299   2.258  0.1364 -0.0337  0.0623
 3240PW      WP14655   2.676   5.201   2.358 -0.2467  0.0508  0.1693
 3240PW      WM14656   2.545   5.301   2.198  0.3501 -0.1883 -0.4225
 3241PW       W14657   9.562   0.800   4.453 -0.0429 -0.1022 -0.0594
 3241PW      WP14658   9.684   0.865   4.427 -0.2443  0.3304  0.0451
 3241PW      WM14659   9.576   0.711   4.345 -0.0142 -0.1997  0.0246
 3242PW       W14660   6.816   5.007   1.002  0.1073 -0.6916 -0.2184
 3242PW      WP14661   6.904   4.974   1.106  0.3076  0.4464  0.0386
 3242PW      WM14662   6.767   5.024   0.872  0.1060 -0.3111 -0.1739
 3243PW       W14663  12.059   2.470   8.968 -0.0545 -0.6379 -0.2341
 3243PW      WP14664  12.121   2.440   8.847  0.2438  0.0521 -0.2740
 3243PW      WM14665  11.941   2.531   8.922  0.0303  0.0523  0.3739
 3244PW       W14666   6.598   2.520  12.529  0.3331  0.1104  0.4576
 3244PW      WP14667   6.709   2.601  12.502  0.3211 -0.0234 -0.0376
 3244PW      WM14668   6.477   2.578  12.571  0.2885 -0.1428  0.6927
 3245PW       W14669   1.944   4.497   5.329 -0.2704  0.2733  0.1523
 3245PW      WP14670   1.907   4.470   5.461 -0.0753  0.2438  0.2021
 3245PW      WM14671   2.082   4.520   5.327 -0.1829 -0.1903  0.2037
 3246PW       W14672   2.222   3.801  12.901  0.2970 -0.0201 -0.0237
 3246PW      WP14673   2.150   3.760  13.014  0.1424 -0.1601 -0.1696
 3246PW      WM14674   2.143   3.912  12.871 -0.0964 -0.2037  0.2850
 3247PW       W14675   7.652   4.997   9.442  0.0264  0.2146  0.0039
 3247PW      WP14676   7.763   5.082   9.445  0.4985 -0.3657  0.0520
 3247PW      WM14677   7.651   5.058   9.568 -0.2492 -0.0387  0.1290
 3248PW       W14678   3.313   1.026   8.937  0.3464 -0.1864 -0.2162
 3248PW      WP14679   3.232   1.010   8.824 -0.6259  0.2687  0.3543
 3248PW      WM14680   3.298   0.889   8.959  0.0284 -0.1806 -0.3665
 3249PW       W14681   3.963   3.796   2.585  0.1308  0.2583 -0.4943
 3249PW      WP14682   4.057   3.705   2.632 -0.6905 -0.3051  0.2050
 3249PW      WM14683   4.095   3.842   2.596  0.0982  0.2722 -0.0981
 3250PW       W14684   0.519   9.902   0.747 -0.1497 -0.3550 -0.2137
 3250PW      WP14685   0.511  10.029   0.806  0.8342 -0.3212 -0.0640
 3250PW      WM14686   0.609   9.801   0.710  0.3789 -0.1444  0.4000
 3251PW       W14687  10.936   3.677   2.210  0.5340 -0.0306  0.1197
 3251PW      WP14688  11.008   3.601   2.303  0.2458 -0.0800  0.3094
 3251PW      WM14689  10.805   3.685   2.259  0.4335 -0.2960 -0.0918
 3252PW       W14690   2.119   0.315  10.573  0.3010  0.2487 -0.1218
 3252PW      WP14691   2.034   0.224  10.638  0.1085  0.2267 -0.3983
 3252PW      WM14692   2.106   0.423  10.661 -0.3257  0.4253 -0.4091
 3253PW       W14693   6.654   5.068   5.048 -0.5478  0.1342 -0.0317
 3253PW      WP14694   6.710   4.947   5.093 -0.7791  0.2640  0.6761
 3253PW      WM14695   6.628   4.985   4.938  0.3171 -0.2495  0.0108
 3254PW       W14696  10.917  11.704  10.306  0.1046  0.0545 -0.1093
 3254PW      WP14697  10.880  11.624  10.415 -0.5153  0.4664  0.0043
 3254PW      WM14698  10.788  11.750  10.280  0.0707 -0.2772 -0.6116
 3255PW       W14699   6.213  11.482   4.036 -0.0082 -0.4685  0.2730
 3255PW      WP14700   6.336  11.448   3.980 -0.0543  0.1817 -0.2887
 3255PW      WM14701   6.235  11.590   4.122 -0.4024  0.0082 -0.1913
 3256PW       W14702   2.738   5.264   8.191  0.0188 -0.1332  0.2599
 3256PW      WP14703   2.859   5.237   8.255  0.1856  0.1803  0.0865
 3256PW      WM14704   2.724   5.378   8.271 -0.1888  0.3937 -0.4837
 3257PW       W14705  11.905   1.545   4.989 -0.0786  0.0951  0.2075
 3257PW      WP14706  12.024   1.475   4.967 -0.1478  0.0551 -0.0719
 3257PW      WM14707  11.983   1.655   4.951 -0.2549  0.2409  0.2589
 3258PW       W14708   9.154  10.986  12.205 -0.1433 -0.0186 -0.0441
 3258PW      WP14709   9.162  11.105  12.278  0.3250 -0.1492  0.1356
 3258PW      WM14710   9.111  10.893  12.301  0.1331 -0.3617 -0.2401
 3259PW       W14711   3.423   3.932   3.744  0.0647 -0.4243 -0.0303
 3259PW      WP14712   3.389   3.867   3.863 -0.0640  0.2011  0.2980
 3259PW      WM14713   3.395   3.966   3.611  0.1101  0.3225  0.1267
 3260PW       W14714   8.724   8.781   2.292 -0.2537 -0.1842  0.2039
 3260PW      WP14715   8.731   8.907   2.355  0.0685 -0.2219  0.2491
 3260PW      WM14716   8.807   8.702   2.372 -0.2363 -0.0064  0.3682
 3261PW       W14717   6.669   1.784   2.325  0.4819 -0.0290  0.0438
 3261PW      WP14718   6.760   1.679   2.335  0.0710 -0.4745 -0.5038
 3261PW      WM14719   6.638   1.841   2.201 -0.0910  0.1310  0.2449
 3262PW       W14720   1.806   1.833   3.570  0.1934 -0.0028  0.1977
 3262PW      WP14721   1.913   1.921   3.550  0.1362  0.0395  0.0746
 3262PW      WM14722   1.691   1.893   3.516  0.2462 -0.1637 -0.1038
 3263PW       W14723   4.870   0.128  10.458 -0.1750  0.2436 -0.1602
 3263PW      WP14724   4.900   0.264  10.475  0.2310  0.1607 -0.1529
 3263PW      WM14725   4.794   0.172  10.350 -0.0168  0.3635 -0.2250
 3264PW       W14726   0.610   2.386   2.642  0.3376  0.1525  0.4472
 3264PW      WP14727   0.600   2.282   2.735 -0.5030 -0.2128  0.0043
 3264PW      WM14728   0.578   2.513   2.689  0.2488 -0.0281  0.8956
 3265PW       W14729   7.041  10.558   8.948  0.3596  0.0188 -0.0379
 3265PW      WP14730   7.104  10.657   9.023  0.1926  0.1330 -0.0450
 3265PW      WM14731   6.926  10.530   8.872  0.0819  0.0521  0.3562
 3266PW       W14732   5.390   3.408   3.067 -0.4075  0.1502 -0.0361
 3266PW      WP14733   5.290   3.506   3.057 -0.1096  0.4578 -0.1276
 3266PW      WM14734   5.517   3.373   3.019 -0.4219 -0.0140  0.0452
 3267PW       W14735  10.772   7.644   9.104  0.3833 -0.1346 -0.0008
 3267PW      WP14736  10.861   7.746   9.140 -0.2087  0.2838  0.3732
 3267PW      WM14737  10.637   7.607   9.108  0.3496  0.0132  0.3402
 3268PW       W14738   1.535  10.281   9.738  0.1200 -0.2749 -0.0377
 3268PW      WP14739   1.551  10.145   9.710 -0.5834 -0.2915 -0.4924
 3268PW      WM14740   1.623  10.390   9.738 -0.4563  0.2178 -0.0329
 3269PW       W14741   2.105   2.265   3.620  0.3739  0.3628 -0.3341
 3269PW      WP14742   1.982   2.279   3.554  0.3077 -0.1147 -0.3348
 3269PW      WM14743   2.013   2.159   3.624  0.3261  0.4088  0.3267
 3270PW       W14744   5.961   5.460   9.020 -0.2784  0.0309 -0.4296
 3270PW      WP14745   5.912   5.340   8.967 -0.7072 -0.0060  0.0099
 3270PW      WM14746   5.934   5.589   9.070 -0.0152 -0.0976  0.0759
 3271PW       W14747   5.302   5.023   3.278 -0.2005  0.3407 -0.0459
 3271PW      WP14748   5.352   5.079   3.396 -0.1168  0.3722 -0.0965
 3271PW      WM14749   5.224   5.099   3.190  0.0832  0.1026 -0.5171
 3272PW       W14750   8.561  11.413   8.262  0.0940  0.3415 -0.1903
 3272PW      WP14751   8.618  11.512   8.344 -0.2475  0.1688  0.2738
 3272PW      WM14752   8.558  11.320   8.367 -0.1991  0.2749 -0.2560
 3273PW       W14753  10.873   9.860   2.419 -0.1269  0.4032 -0.6551
 3273PW      WP14754  10.779   9.938   2.351 -0.3927  0.2295 -0.4955
 3273PW      WM14755  10.854   9.730   2.371  0.2664 -0.1045  0.3966
 3274PW       W14756   7.918   6.486   4.080 -0.0392 -0.0314  0.0492
 3274PW      WP14757   7.800   6.464   4.007 -0.0416  0.4169 -0.0986
 3274PW      WM14758   8.044   6.495   4.021 -0.1587  0.2920 -0.1769
 3275PW       W14759   5.902   2.045  11.425  0.4741  0.4841  0.3158
 3275PW      WP14760   5.894   2.045  11.285  0.2041 -0.2896  0.3071
 3275PW      WM14761   5.783   1.994  11.371  0.7458  0.4553 -0.3088
 3276PW       W14762   6.285  11.284  11.528  0.1919 -0.3650  0.1401
 3276PW      WP14763   6.271  11.348  11.651  0.2058  0.2359 -0.1537
 3276PW      WM14764   6.386  11.345  11.453  0.0349  0.2094  0.3749
 3277PW       W14765   9.518  11.294   0.833 -0.0598 -0.0409 -0.1830
 3277PW      WP14766   9.646  11.301   0.777  0.1408  0.2472  0.2889
 3277PW      WM14767   9.422  11.256   0.738 -0.3650  0.1789  0.0252
 3278PW       W14768   3.611   5.397   3.503 -0.0035  0.0880  0.1309
 3278PW      WP14769   3.556   5.271   3.527 -0.1388  0.0546 -0.3022
 3278PW      WM14770   3.605   5.454   3.374  0.2133  0.0303  0.0943
 3279PW       W14771  12.133   6.471  12.023  0.0712  0.1291 -0.0642
 3279PW      WP14772  11.997   6.463  11.990  0.1349  0.3434 -0.4014
 3279PW      WM14773  12.269   6.439  12.030  0.0621  0.0512 -0.2258
 3280PW       W14774  10.195   6.227   5.096 -0.1019 -0.5458  0.0138
 3280PW      WP14775  10.260   6.322   5.018 -0.3670 -0.4102 -0.0494
 3280PW      WM14776  10.063   6.179   5.101 -0.2328 -0.2528 -0.3780
 3281PW       W14777   8.489   2.336   2.835 -0.1428  0.0780 -0.1557
 3281PW      WP14778   8.452   2.408   2.949  0.2705  0.0674 -0.0069
 3281PW      WM14779   8.480   2.409   2.716  0.4164 -0.1147 -0.3296
 3282PW       W14780   8.211  10.808   1.811  0.3540 -0.2546  0.4294
 3282PW      WP14781   8.335  10.753   1.846  0.4860  0.1375  0.6165
 3282PW      WM14782   8.193  10.848   1.678  0.4802 -0.7423  0.2570
 3283PW       W14783  11.547   1.114   4.926 -0.0023  0.3069  0.3575
 3283PW      WP14784  11.417   1.155   4.959 -0.2078  0.0217 -0.0543
 3283PW      WM14785  11.653   1.156   4.845  0.0610 -0.1541  0.1837
 3284PW       W14786   1.763   9.319   2.836  0.1474 -0.4613 -0.1941
 3284PW      WP14787   1.859   9.375   2.752 -0.0894  0.0879 -0.1217
 3284PW      WM14788   1.678   9.357   2.732 -0.0296  0.1235  0.1421
 3285PW       W14789   6.403  11.766   2.445 -0.1651  0.1704  0.1872
 3285PW      WP14790   6.421  11.672   2.343  0.0815  0.0252  0.3587
 3285PW      WM14791   6.460  11.893   2.441  0.1281  0.0364 -0.0802
 3286PW       W14792   5.673   3.831   9.325 -0.0108  0.2379  0.0137
 3286PW      WP14793   5.633   3.827   9.191 -0.3507 -0.1236  0.1154
 3286PW      WM14794   5.652   3.693   9.340  0.2768  0.0966 -0.7043
 3287PW       W14795   7.097   2.617  13.317 -0.3486 -0.0279  0.1841
 3287PW      WP14796   7.103   2.584  13.453 -0.2998 -0.9177 -0.0023
 3287PW      WM14797   7.042   2.643  13.191 -0.3092 -0.6387  0.0210
 3288PW       W14798  11.107  10.338  10.799  0.0723 -0.4917 -0.1202
 3288PW      WP14799  11.212  10.263  10.748  0.0097 -0.6431 -0.0295
 3288PW      WM14800  11.056  10.460  10.753  0.0952 -0.2162  0.5246
 3289PW       W14801   9.017  10.105  12.572  0.1459  0.1854 -0.0254
 3289PW      WP14802   8.906  10.121  12.487 -0.0014  0.0416  0.1384
 3289PW      WM14803   9.018  10.219  12.654 -0.1675 -0.0013  0.2506
 3290PW       W14804   8.067   7.116   2.297 -0.1100 -0.2795 -0.2199
 3290PW      WP14805   7.977   7.144   2.401 -0.0161  0.0427 -0.2204
 3290PW      WM14806   8.097   7.053   2.176 -0.0585  0.0791 -0.3994
 3291PW       W14807  11.598   3.822   1.530 -0.1746  0.6367 -0.1587
 3291PW      WP14808  11.673   3.705   1.516 -0.1653  0.6457 -0.1845
 3291PW      WM14809  11.707   3.892   1.477 -0.0375  0.4608 -0.1146
 3292PW       W14810   4.484  11.477  13.268 -0.1508 -0.2358 -0.1182
 3292PW      WP14811   4.542  11.583  13.338 -0.4008 -0.0407 -0.1969
 3292PW      WM14812   4.357  11.419  13.275 -0.2689  0.0445  0.3210
 3293PW       W14813   1.937   0.964  10.163  0.1086  0.1448  0.2313
 3293PW      WP14814   1.970   0.938  10.297 -0.0987  0.2235  0.3000
 3293PW      WM14815   1.822   0.930  10.090  0.1314 -0.0382  0.2775
 3294PW       W14816   2.863   2.625  10.228 -0.0578  0.4493 -0.1642
 3294PW      WP14817   2.869   2.635  10.089  0.2621  0.0975 -0.1824
 3294PW      WM14818   2.778   2.691  10.318  0.0548 -0.3109  0.5667
 3295PW       W14819   5.675   4.791  11.493  0.2101  0.0493 -0.0427
 3295PW      WP14820   5.588   4.727  11.405 -0.0534 -0.0321  0.2675
 3295PW      WM14821   5.592   4.904  11.507  0.0055 -0.1513  0.5260
 3296PW       W14822  11.967   0.591  11.302  0.6430  0.0828 -0.2548
 3296PW      WP14823  11.961   0.463  11.246  0.5462 -0.0376  0.0210
 3296PW      WM14824  12.085   0.650  11.350  0.5254  0.4407 -0.3857
 3297PW       W14825  12.005   3.687  12.273  0.2820 -0.0804 -0.0981
 3297PW      WP14826  11.998   3.547  12.267 -0.4336 -0.0722  0.0563
 3297PW      WM14827  11.982   3.689  12.134 -0.1012  0.3641 -0.0399
 3298PW       W14828  10.044   1.949   3.025  0.2774  0.0709 -0.4902
 3298PW      WP14829  10.175   1.925   3.069  0.1451  0.0399 -0.1004
 3298PW      WM14830  10.103   1.877   2.920  0.7619 -0.2378 -0.0307
 3299PW       W14831   9.230   2.349  10.220 -0.0786  0.1761  0.2734
 3299PW      WP14832   9.276   2.221  10.253  0.0218  0.1889  0.1875
 3299PW      WM14833   9.178   2.479  10.222 -0.0515  0.1870  0.2763
 3300PW       W14834   6.458   8.528   2.133  0.0134 -0.1918  0.0481
 3300PW      WP14835   6.500   8.610   2.027  0.0295 -0.0495  0.1632
 3300PW      WM14836   6.504   8.402   2.171 -0.2771 -0.4445 -0.3873
 3301PW       W14837   3.995   2.872   3.962 -0.1738  0.2598 -0.3775
 3301PW      WP14838   3.865   2.845   3.918 -0.0203 -0.6931 -0.3511
 3301PW      WM14839   4.093   2.920   3.875  0.0275 -0.0384 -0.3195
 3302PW       W14840  11.290   4.221  12.254 -0.1862  0.1301  0.0795
 3302PW      WP14841  11.158   4.213  12.207 -0.0465 -0.4057 -0.2633
 3302PW      WM14842  11.292   4.348  12.313 -0.0303 -0.0383  0.4513
 3303PW       W14843   6.970   2.822   0.827  0.4326 -0.2267 -0.1154
 3303PW      WP14844   6.981   2.938   0.750  0.0451 -0.2251 -0.1759
 3303PW      WM14845   6.894   2.866   0.936 -0.0808 -0.3379 -0.4123
 3304PW       W14846   1.998   2.825   3.405  0.2559  0.7414 -0.2038
 3304PW      WP14847   2.065   2.736   3.320  0.0464 -0.0141  0.3730
 3304PW      WM14848   1.892   2.898   3.350 -0.1556  0.0719 -0.3629
 3305PW       W14849   6.160   8.669  12.109  0.1891 -0.0038  0.1954
 3305PW      WP14850   6.089   8.676  12.230 -0.0003  0.0506  0.0829
 3305PW      WM14851   6.042   8.743  12.093  0.4096  0.2150 -0.6198
 3306PW       W14852   2.863   8.779   5.349  0.3310  0.1488  0.0858
 3306PW      WP14853   2.950   8.767   5.458  0.4397 -0.2645 -0.0362
 3306PW      WM14854   2.895   8.766   5.213 -0.1569  0.1354 -0.0341
 3307PW       W14855   7.033   1.268  11.293  0.1675 -0.2614  0.0245
 3307PW      WP14856   7.016   1.167  11.388 -0.9025  0.1707  0.3737
 3307PW      WM14857   6.984   1.326  11.410 -0.1233 -0.3073 -0.0695
 3308PW       W14858  10.553   1.754  12.220  0.3136  0.4555 -0.2877
 3308PW      WP14859  10.506   1.706  12.098  0.6446  0.0938 -0.2842
 3308PW      WM14860  10.577   1.876  12.158  0.0213  0.4540 -0.4090
 3309PW       W14861   3.998   4.996   3.576 -0.2692 -0.4196  0.2397
 3309PW      WP14862   3.992   4.925   3.455 -0.3174 -0.1174  0.0604
 3309PW      WM14863   4.065   5.007   3.698 -0.2195 -0.2528  0.1985
 3310PW       W14864   1.734   5.330   1.613  0.5137 -0.1380  0.0048
 3310PW      WP14865   1.807   5.260   1.516 -0.0001 -0.2148 -0.3498
 3310PW      WM14866   1.616   5.255   1.627  0.3749  0.0434 -0.1590
 3311PW       W14867   8.364   4.823  12.748  0.1576  0.4285  0.4975
 3311PW      WP14868   8.347   4.873  12.619  0.0574 -0.0681  0.3061
 3311PW      WM14869   8.318   4.954  12.765 -0.2799  0.4177 -0.3282
 3312PW       W14870   3.817   6.136   0.285 -0.1205  0.1825  0.1116
 3312PW      WP14871   3.711   6.216   0.241  0.0085  0.4753  0.3148
 3312PW      WM14872   3.932   6.202   0.238 -0.1659  0.0914 -0.1356
 3313PW       W14873  11.951   6.816   4.283 -0.3883  0.1539  0.3489
 3313PW      WP14874  11.975   6.953   4.267  0.5715 -0.0129  0.0031
 3313PW      WM14875  11.870   6.897   4.202 -0.0451  0.0420 -0.1320
 3314PW       W14876   0.570   1.574   8.533  0.2171  0.2632 -0.3700
 3314PW      WP14877   0.490   1.612   8.641  0.4125  0.1098 -0.1664
 3314PW      WM14878   0.445   1.543   8.479  0.1081 -0.1773  0.0975
 3315PW       W14879  11.360   2.581   2.717 -0.1229  0.6363 -0.0245
 3315PW      WP14880  11.233   2.543   2.673  0.2273 -0.2583 -0.3660
 3315PW      WM14881  11.485   2.562   2.655 -0.1034  0.2069  0.1284
 3316PW       W14882   2.412   9.360   5.373 -0.4713  0.3061 -0.2722
 3316PW      WP14883   2.352   9.305   5.259 -0.2057  0.3013 -0.4141
 3316PW      WM14884   2.547   9.397   5.378 -0.2568 -0.4413  0.3605
 3317PW       W14885   8.139   9.693  10.661  0.2721 -0.2252  0.2448
 3317PW      WP14886   8.054   9.738  10.763 -0.1275  0.0677 -0.1989
 3317PW      WM14887   8.149   9.558  10.696 -0.5089 -0.4436 -0.2483
 3318PW       W14888  10.594   0.449  10.825 -0.0809 -0.0760  0.0259
 3318PW      WP14889  10.605   0.551  10.920  0.1431 -0.4935  0.4723
 3318PW      WM14890  10.646   0.416  10.951 -0.0200  0.3779  0.1286
 3319PW       W14891   5.058   5.488   3.862  0.0301 -0.2784 -0.1481
 3319PW      WP14892   5.122   5.526   3.743  0.2529  0.2105  0.1163
 3319PW      WM14893   5.172   5.473   3.941 -0.2373  0.2066  0.3587
 3320PW       W14894   6.944   3.745   9.773 -0.2178  0.0480 -0.0350
 3320PW      WP14895   6.869   3.627   9.778 -0.6394  0.2890 -0.3281
 3320PW      WM14896   6.823   3.792   9.825 -0.0906  0.1193  0.2037
 3321PW       W14897   1.675   9.434   5.093 -0.2410 -0.0816 -0.0478
 3321PW      WP14898   1.788   9.353   5.078 -0.0314  0.2640 -0.4786
 3321PW      WM14899   1.567   9.389   5.017 -0.0674 -0.4771 -0.0727
 3322PW       W14900   2.478   1.629   5.036 -0.1505 -0.0901  0.5195
 3322PW      WP14901   2.589   1.586   4.963 -0.1697  0.0150  0.4278
 3322PW      WM14902   2.366   1.615   4.953  0.0359 -0.5040  0.3236
 3323PW       W14903   0.677   2.428   0.268 -0.0030  0.1879  0.3640
 3323PW      WP14904   0.788   2.353   0.228 -0.2721 -0.0789  0.0836
 3323PW      WM14905   0.611   2.535   0.206  0.3229 -0.0342 -0.4278
 3324PW       W14906   7.872   1.900   9.510  0.1259 -0.0867  0.0946
 3324PW      WP14907   7.802   1.779   9.522 -0.1677  0.0644 -0.0485
 3324PW      WM14908   7.978   1.924   9.598  0.0944 -0.5165  0.2622
 3325PW       W14909   7.197   8.278   9.554  0.3573 -0.0066 -0.1534
 3325PW      WP14910   7.237   8.364   9.450  0.7787  0.3349  0.2693
 3325PW      WM14911   7.314   8.340   9.600  0.4861 -0.0137 -0.4565
 3326PW       W14912  11.971  10.786   4.908 -0.0676  0.5261  0.2293
 3326PW      WP14913  11.855  10.707   4.894  0.2963 -0.0356  0.2114
 3326PW      WM14914  12.057  10.832   5.008  0.1400  0.1912  0.2133
 3327PW       W14915  10.684   6.838   2.786 -0.4026  0.8707  0.0283
 3327PW      WP14916  10.687   6.894   2.914  0.4304  0.0028  0.4520
 3327PW      WM14917  10.614   6.798   2.671  0.6817 -0.6440 -0.2618
 3328PW       W14918   2.734   5.481   1.016  0.0986 -0.2978 -0.2651
 3328PW      WP14919   2.647   5.375   1.045 -0.4894  0.2688  0.1744
 3328PW      WM14920   2.759   5.536   0.890  0.1547  0.5432  0.0797
 3329PW       W14921   9.612   6.949   9.434 -0.0029  0.0567  0.3094
 3329PW      WP14922   9.677   6.865   9.344 -0.1424 -0.1173  0.3665
 3329PW      WM14923   9.687   7.010   9.333  0.1668 -0.1084  0.3337
 3330PW       W14924   8.551   0.033   8.842  0.2916  0.3257 -0.4680
 3330PW      WP14925   8.657   0.087   8.915  0.4767  0.3368 -0.7349
 3330PW      WM14926   8.640   0.006   8.737  0.1416 -0.4481 -0.4249
 3331PW       W14927   0.290   5.530  11.823  0.2634 -0.6020 -0.1082
 3331PW      WP14928   0.270   5.646  11.747 -0.4136 -0.2534  0.5353
 3331PW      WM14929   0.330   5.432  11.915  0.2527 -0.0197  0.5619
 3332PW       W14930   1.191   0.713   2.585 -0.2084  0.2861  0.1398
 3332PW      WP14931   1.113   0.645   2.491 -0.3848 -0.0122  0.4924
 3332PW      WM14932   1.311   0.784   2.571  0.0214 -0.0703  0.2599
 3333PW       W14933   1.653  11.099   4.775 -0.3240 -0.0955  0.2010
 3333PW      WP14934   1.776  11.079   4.839 -0.0780 -0.4087 -0.3375
 3333PW      WM14935   1.681  11.028   4.658 -0.2521  0.1874  0.0415
 3334PW       W14936   6.731   2.094  13.205 -0.1567  0.1191 -0.1943
 3334PW      WP14937   6.801   2.010  13.293 -0.1276  0.4042  0.0647
 3334PW      WM14938   6.742   2.182  13.313 -0.1217  0.1104 -0.1911
 3335PW       W14939   1.917   7.274   1.534 -0.2657 -0.0982  0.3541
 3335PW      WP14940   1.952   7.184   1.635  0.0780 -0.0766  0.2621
 3335PW      WM14941   1.806   7.255   1.451  0.0598  0.5491 -0.2891
 3336PW       W14942  10.148   1.517  12.127  0.0889 -0.1046  0.1914
 3336PW      WP14943  10.210   1.408  12.064 -0.4247 -0.7230  0.6783
 3336PW      WM14944  10.211   1.642  12.133 -0.0838  0.0172 -0.2884
 3337PW       W14945   2.060  11.297   1.315  0.3843 -0.1669 -0.2423
 3337PW      WP14946   2.055  11.388   1.421 -0.1396 -0.2043 -0.2227
 3337PW      WM14947   1.984  11.194   1.260 -0.4351  0.1758  0.1663
 3338PW       W14948   0.408   9.863  11.316  0.3097 -0.0340 -0.1856
 3338PW      WP14949   0.449   9.988  11.363 -0.3909  0.2075 -0.1626
 3338PW      WM14950   0.537   9.808  11.324  0.3770  0.1764  0.4704
 3339PW       W14951  10.884  12.029   9.931 -0.4413 -0.0054  0.0117
 3339PW      WP14952  10.890  12.044  10.070  0.0097  0.1590 -0.0171
 3339PW      WM14953  10.876  11.967   9.805  0.2293 -0.2201  0.0540
 3340PW       W14954   8.120   0.547   3.567 -0.0442 -0.6345  0.2241
 3340PW      WP14955   8.043   0.657   3.526  0.3745 -0.2821  0.3481
 3340PW      WM14956   8.158   0.604   3.689 -0.0253 -0.0566 -0.0369
 3341PW       W14957  11.724  11.822   3.847 -0.2565  0.0765 -0.2275
 3341PW      WP14958  11.771  11.916   3.939 -0.1101 -0.0580 -0.1629
 3341PW      WM14959  11.658  11.756   3.951  0.1266  0.2500  0.1447
 3342PW       W14960  11.209   0.377   8.623  0.0777 -0.1156  0.1437
 3342PW      WP14961  11.083   0.362   8.682 -0.0800 -0.6892 -0.3005
 3342PW      WM14962  11.257   0.403   8.493  0.3974 -0.0251  0.2749
 3343PW       W14963   1.887   2.084   4.034  0.1415 -0.1064 -0.3058
 3343PW      WP14964   1.979   2.124   4.132 -0.1275 -0.2385  0.0093
 3343PW      WM14965   1.807   2.172   3.959 -0.3297 -0.2270  0.0353
 3344PW       W14966   8.099   8.239   2.151 -0.0803 -0.3963 -0.2411
 3344PW      WP14967   8.176   8.259   2.267  0.0259  0.2692 -0.4105
 3344PW      WM14968   8.190   8.344   2.136  0.1170 -0.4531  0.3771
 3345PW       W14969  10.264  10.360   3.541 -0.5869 -0.1524 -0.2196
 3345PW      WP14970  10.356  10.461   3.571  0.1774 -0.8011 -0.2135
 3345PW      WM14971  10.167  10.319   3.634 -0.0769 -0.0957  0.3726
 3346PW       W14972   8.259   0.418  10.245 -0.1020 -0.1345  0.5141
 3346PW      WP14973   8.300   0.296  10.191 -0.1430  0.0748 -0.0120
 3346PW      WM14974   8.153   0.428  10.337 -0.1006 -0.1460  0.5170
 3347PW       W14975  10.505   6.241   1.657 -0.1434  0.1549  0.0273
 3347PW      WP14976  10.627   6.297   1.694  0.1761 -0.0171 -0.6782
 3347PW      WM14977  10.459   6.118   1.706 -0.1252  0.1512  0.0352
 3348PW       W14978  10.159   6.647  12.093  0.1468 -0.0981 -0.3001
 3348PW      WP14979  10.280   6.590  12.137  0.1256  0.1626  0.1184
 3348PW      WM14980  10.131   6.782  12.117 -0.7898 -0.3135  0.0103
 3349PW       W14981   4.596  10.323  10.371  0.2776 -0.2432  0.4399
 3349PW      WP14982   4.584  10.395  10.491 -0.3268  0.0025  0.2500
 3349PW      WM14983   4.646  10.198  10.334  0.4174 -0.2956  0.7839
 3350PW       W14984   2.068   6.182   0.395  0.0713 -0.0306 -0.2710
 3350PW      WP14985   1.937   6.216   0.433  0.2077  0.3520 -0.1175
 3350PW      WM14986   2.109   6.247   0.278  0.1885  0.1550 -0.1298
 3351PW       W14987   1.351   2.188  12.304  0.0094  0.0567 -0.3073
 3351PW      WP14988   1.420   2.202  12.183  0.1406 -0.1407 -0.2584
 3351PW      WM14989   1.483   2.147  12.327  0.0056  0.0356 -0.3231
 3352PW       W14990   9.727   9.588   1.164  0.0135 -0.3846  0.1638
 3352PW      WP14991   9.647   9.695   1.123  0.1466 -0.2734  0.1925
 3352PW      WM14992   9.801   9.630   1.275  0.1591  0.1084 -0.1060
 3353PW       W14993   0.111   6.386  10.769  0.1097  0.0177  0.3520
 3353PW      WP14994   0.097   6.253  10.730  0.0251  0.0389  0.3068
 3353PW      WM14995   0.026   6.382  10.880  0.0201 -0.0176  0.2831
 3354PW       W14996  11.134   5.879  12.494  0.1941  0.0752 -0.0402
 3354PW      WP14997  11.163   5.779  12.401  0.1480 -0.1319  0.1632
 3354PW      WM14998  10.996   5.856  12.495  0.2264 -0.1786  0.5154
 3355PW       W14999   7.021   7.499   2.078 -0.4653  0.0985  0.3876
 3355PW      WP15000   6.924   7.405   2.044  0.1925 -0.5387  0.1427
 3355PW      WM15001   7.080   7.466   2.201  0.0565  0.3605  0.2252
 3356PW       W15002   6.945   7.887  12.750 -0.0923 -0.2401  0.1176
 3356PW      WP15003   6.916   7.842  12.880 -0.1247  0.6814  0.4713
 3356PW      WM15004   6.952   8.024  12.723  0.2539 -0.2164  0.2923
 3357PW       W15005   9.313  11.939  11.925 -0.2910  0.1630  0.2370
 3357PW      WP15006   9.453  11.945  11.922 -0.2771 -0.1380 -0.1372
 3357PW      WM15007   9.289  12.048  11.840  0.1751  0.0509 -0.0589
 3358PW       W15008   4.007   3.505   4.421  0.5369 -0.0463 -0.2868
 3358PW      WP15009   3.900   3.466   4.340  0.1759  0.4836 -0.0938
 3358PW      WM15010   4.121   3.565   4.366  0.1131  0.7006 -0.4275
 3359PW       W15011   4.299   7.118   1.284 -0.0510 -0.0089  0.2638
 3359PW      WP15012   4.283   7.256   1.307  0.3504  0.1064 -0.0721
 3359PW      WM15013   4.330   7.085   1.152  0.3034  0.2163  0.2832
 3360PW       W15014   5.547   4.390  11.795 -0.4433  0.2581  0.1539
 3360PW      WP15015   5.526   4.267  11.859 -0.1808 -0.0829 -0.3738
 3360PW      WM15016   5.483   4.392  11.919  0.1123  0.0705  0.4651
 3361PW       W15017   3.411   8.069   0.892  0.1522 -0.1548 -0.1872
 3361PW      WP15018   3.409   8.203   0.850  0.0820 -0.0138  0.2421
 3361PW      WM15019   3.315   7.978   0.845 -0.3614  0.0102  0.4604
 3362PW       W15020   8.651   0.522  10.016 -0.0469 -0.0240 -0.1786
 3362PW      WP15021   8.773   0.525  10.086 -0.2409  0.1616  0.1655
 3362PW      WM15022   8.580   0.624   9.952  0.0283 -0.1100 -0.4033
 3363PW       W15023   4.515   1.145   9.935 -0.0395  0.1643 -0.4998
 3363PW      WP15024   4.625   1.142  10.022 -0.2372  0.1171 -0.2464
 3363PW      WM15025   4.433   1.139  10.048 -0.0290  0.5838 -0.4637
 3364PW       W15026  10.559   9.861   5.114  0.0254  0.1549 -0.0192
 3364PW      WP15027  10.614   9.875   4.986 -0.4311 -0.4894 -0.3117
 3364PW      WM15028  10.628   9.948   5.200  0.2641  0.1344 -0.1858
 3365PW       W15029  10.575  10.005   4.419  0.0348 -0.0476 -0.2910
 3365PW      WP15030  10.683   9.963   4.341  0.2300 -0.1191  0.0129
 3365PW      WM15031  10.655  10.003   4.533  0.2087 -0.3184 -0.4145
 3366PW       W15032   7.851  12.022   9.451  0.0068 -0.3940  0.3339
 3366PW      WP15033   7.866  12.154   9.495 -0.1324 -0.1814 -0.2102
 3366PW      WM15034   7.927  12.032   9.568 -0.2371 -0.3735  0.4936
 3367PW       W15035   4.607   7.713   1.573 -0.2338 -0.4601 -0.0661
 3367PW      WP15036   4.601   7.617   1.674  0.0794 -0.4335 -0.0164
 3367PW      WM15037   4.703   7.803   1.526 -0.2002 -0.3038  0.2891
 3368PW       W15038  11.685  10.822  11.642  0.0484 -0.0764 -0.0633
 3368PW      WP15039  11.645  10.689  11.627  0.4311 -0.2241  0.1596
 3368PW      WM15040  11.771  10.904  11.716 -0.1107  0.2238 -0.1986
 3369PW       W15041   0.026   9.257  11.908  0.2838 -0.3529 -0.0330
 3369PW      WP15042   0.053   9.133  11.849 -0.1157 -0.7311  0.5238
 3369PW      WM15043   0.145   9.193  11.874  0.4720  0.1457 -0.3740
 3370PW       W15044   1.961   5.815   0.640  0.0910  0.3333 -0.0139
 3370PW      WP15045   1.874   5.847   0.745  0.2169  0.0099  0.1989
 3370PW      WM15046   2.093   5.774   0.667 -0.0364  0.0359  0.1841
 3371PW       W15047   9.447   8.688  10.222  0.0145  0.0131  0.0535
 3371PW      WP15048   9.561   8.741  10.285 -0.0970  0.4315 -0.0814
 3371PW      WM15049   9.392   8.752  10.334  0.0416 -0.4419  0.3377
 3372PW       W15050   4.250   4.741   2.387 -0.0209 -0.0396 -0.2740
 3372PW      WP15051   4.377   4.719   2.443 -0.2912 -0.4015  0.2273
 3372PW      WM15052   4.158   4.690   2.478  0.3782 -0.2795  0.0090
 3373PW       W15053   3.596   0.814  10.683  0.0871  0.3203 -0.2869
 3373PW      WP15054   3.715   0.788  10.751 -0.2112 -0.7055 -0.0683
 3373PW      WM15055   3.591   0.756  10.811  0.2413 -0.0462 -0.4412
 3374PW       W15056   6.047   6.355   4.964 -0.2178 -0.0466 -0.2799
 3374PW      WP15057   6.066   6.493   4.943  0.0318  0.0686  0.5453
 3374PW      WM15058   5.959   6.380   5.070  0.1367  0.6371 -0.1153
 3375PW       W15059   9.165   7.979   2.269  0.1082  0.0806  0.2683
 3375PW      WP15060   9.040   7.920   2.294  0.0361  0.2432  0.2973
 3375PW      WM15061   9.214   8.083   2.189  0.3776 -0.2998 -0.0810
 3376PW       W15062   2.222   0.743  11.567 -0.2636 -0.2989  0.0313
 3376PW      WP15063   2.200   0.734  11.429  0.2158  0.2938 -0.1047
 3376PW      WM15064   2.126   0.811  11.643  0.1331  0.2217  0.0914
 3377PW       W15065   3.261   2.842   1.929  0.3985  0.6856 -0.0472
 3377PW      WP15066   3.299   2.894   2.053 -0.1459 -0.0022  0.4523
 3377PW      WM15067   3.221   2.843   1.795  0.2930 -0.0108 -0.0386
 3378PW       W15068   3.021   1.819   5.148 -0.1049  0.0643  0.1135
 3378PW      WP15069   2.989   1.689   5.188  0.0387  0.0079  0.0483
 3378PW      WM15070   2.966   1.740   5.250  0.2665  0.0288  0.2937
 3379PW       W15071   4.894   6.909  13.063  0.1558 -0.0150  0.3726
 3379PW      WP15072   4.857   6.881  13.195  0.0208 -0.6808  0.2103
 3379PW      WM15073   4.948   7.009  12.982  0.1489  0.1234  0.5363
 3380PW       W15074  11.646   4.076   0.752  0.1886 -0.0379  0.2327
 3380PW      WP15075  11.705   4.005   0.647 -0.2015 -0.3472  0.2149
 3380PW      WM15076  11.560   3.970   0.720 -0.0358  0.3119 -0.4075
 3381PW       W15077  10.569   7.289   2.127  0.1506  0.6922 -0.3288
 3381PW      WP15078  10.593   7.164   2.071 -0.2547  0.5939 -0.2935
 3381PW      WM15079  10.431   7.276   2.114  0.1536  0.1466  0.0251
 3382PW       W15080   2.802   9.658   5.071  0.1162 -0.0210  0.0690
 3382PW      WP15081   2.666   9.658   5.038  0.1981  0.2467 -0.3039
 3382PW      WM15082   2.892   9.586   4.991 -0.0739 -0.2145  0.0247
 3383PW       W15083  11.160   6.085   0.815 -0.0195  0.1210  0.2712
 3383PW      WP15084  11.166   6.061   0.953  0.1787  0.2547  0.2869
 3383PW      WM15085  11.290   6.109   0.771 -0.1442 -0.2875 -0.3806
 3384PW       W15086   9.104   6.604  11.393 -0.5612  0.1770  0.2532
 3384PW      WP15087   9.009   6.502  11.400 -0.2561 -0.0914  0.8705
 3384PW      WM15088   9.168   6.539  11.500 -0.1928 -0.1163 -0.1272
 3385PW       W15089   3.102   7.426   5.480  0.3052  0.2145  0.0979
 3385PW      WP15090   3.229   7.410   5.423  0.2946  0.3399  0.0369
 3385PW      WM15091   3.003   7.401   5.385  0.2961  0.1454  0.1253
 3386PW       W15092   4.055   1.650   1.648  0.1464 -0.0601 -0.2373
 3386PW      WP15093   4.059   1.562   1.539  0.0014 -0.2457 -0.0971
 3386PW      WM15094   3.964   1.736   1.586 -0.0998  0.1481  0.3794
 3387PW       W15095   8.827   0.308   9.197 -0.3377  0.0508  0.2828
 3387PW      WP15096   8.898   0.239   9.297  0.2817  0.1368 -0.0748
 3387PW      WM15097   8.920   0.412   9.193  0.0305 -0.2777 -0.0356
 3388PW       W15098   4.241  11.863   5.393  0.8288 -0.0049  0.3177
 3388PW      WP15099   4.343  11.777   5.436  0.9615 -0.2118 -0.3521
 3388PW      WM15100   4.191  11.957   5.483  0.1469  0.1134 -0.1472
 3389PW       W15101   1.257  11.758   2.458 -0.1090  0.0369  0.0036
 3389PW      WP15102   1.303  11.672   2.558  0.4575  0.4492  0.1267
 3389PW      WM15103   1.229  11.693   2.579 -0.0589  0.0356  0.0146
 3390PW       W15104  10.787   5.768   0.877  0.0775  0.1134  0.3416
 3390PW      WP15105  10.818   5.862   0.777  0.1464 -0.0759  0.1822
 3390PW      WM15106  10.783   5.666   0.781  0.0267  0.1564  0.2970
 3391PW       W15107  11.129   2.655   0.680 -0.5018  0.0960 -0.0517
 3391PW      WP15108  11.177   2.656   0.811  0.0922  0.2968 -0.2540
 3391PW      WM15109  11.048   2.696   0.573  0.0621  0.1691 -0.4742
 3392PW       W15110   2.462  11.088  12.175  0.0283  0.1081 -0.5689
 3392PW      WP15111   2.340  11.044  12.226 -0.1093  0.3967 -0.6414
 3392PW      WM15112   2.554  11.056  12.074 -0.1368 -0.1385 -0.6443
 3393PW       W15113   6.787  10.673  12.737 -0.2998  0.0199 -0.2943
 3393PW      WP15114   6.749  10.675  12.602 -0.1310 -0.5536 -0.3648
 3393PW      WM15115   6.824  10.550  12.791 -0.1381  0.0740 -0.2801
 3394PW       W15116   3.079   4.756  12.351  0.1575 -0.2892  0.0552
 3394PW      WP15117   3.160   4.815  12.449 -0.0028  0.0939 -0.0322
 3394PW      WM15118   3.188   4.816  12.286 -0.0604 -0.0550 -0.1047
 3395PW       W15119   2.570   5.807  10.021  0.0471 -0.1629 -0.0388
 3395PW      WP15120   2.465   5.763  10.103  0.0087  0.2188  0.1294
 3395PW      WM15121   2.675   5.898  10.005  0.0664 -0.2441 -0.4128
 3396PW       W15122  10.713   7.244   4.435  0.1872  0.1878  0.0159
 3396PW      WP15123  10.665   7.197   4.312  0.1485  0.1071  0.0619
 3396PW      WM15124  10.795   7.132   4.452 -0.4618 -0.4202 -0.5494
 3397PW       W15125   7.214   2.442   0.993  0.1260 -0.1678 -0.2277
 3397PW      WP15126   7.136   2.496   0.890  0.2146 -0.0212 -0.2185
 3397PW      WM15127   7.205   2.563   1.062 -0.0752 -0.0638 -0.4281
 3398PW       W15128   8.465   2.649   1.781  0.1336 -0.3066 -0.1488
 3398PW      WP15129   8.422   2.531   1.843  0.6014 -0.2930  0.2386
 3398PW      WM15130   8.593   2.646   1.840  0.0292  0.2894  0.1472
 3399PW       W15131  10.145   6.694   0.358 -0.2995 -0.3368 -0.0354
 3399PW      WP15132  10.117   6.830   0.346  0.1796 -0.2153  0.1079
 3399PW      WM15133  10.151   6.692   0.218  0.0348  0.2233 -0.0426
 3400PW       W15134   3.620   7.634   1.159 -0.2727 -0.3982 -0.1866
 3400PW      WP15135   3.627   7.727   1.055  0.0686 -0.0991  0.0924
 3400PW      WM15136   3.539   7.729   1.222  0.2123  0.0462 -0.1952
 3401PW       W15137   0.388   0.715   9.731  0.0992  0.1714 -0.1136
 3401PW      WP15138   0.369   0.740   9.595 -0.0201  0.2842 -0.0776
 3401PW      WM15139   0.372   0.583   9.776  0.0153  0.1826 -0.1093
 3402PW       W15140   4.338   6.197   1.166 -0.2590 -0.2601 -0.1392
 3402PW      WP15141   4.354   6.109   1.058  0.0901 -0.1293 -0.2018
 3402PW      WM15142   4.389   6.176   1.294 -0.3139  0.2854 -0.0126
 3403PW       W15143   4.003   9.271   3.128  0.1621 -0.0247 -0.3330
 3403PW      WP15144   3.981   9.200   3.246  0.0450  0.3796 -0.1015
 3403PW      WM15145   4.126   9.315   3.079  0.2686 -0.1468 -0.1801
 3404PW       W15146   6.907   4.910   0.284 -0.0858 -0.2564 -0.1290
 3404PW      WP15147   6.876   5.044   0.257 -0.0446 -0.1722  0.2144
 3404PW      WM15148   6.872   4.956   0.412 -0.4566 -0.1486 -0.2621
 3405PW       W15149   6.328  10.821   8.651  0.0753 -0.1593 -0.1213
 3405PW      WP15150   6.205  10.770   8.606 -0.1469  0.1633  0.0970
 3405PW      WM15151   6.460  10.865   8.643  0.1671 -0.0900  0.9644
 3406PW       W15152  11.856   4.251  10.628  0.0468 -0.3683  0.0490
 3406PW      WP15153  11.768   4.249  10.737 -0.1169  0.4919 -0.0333
 3406PW      WM15154  11.759   4.318  10.551  0.1855 -0.3443 -0.1072
 3407PW       W15155   6.940   9.545  10.426  0.5541  0.1020  0.1677
 3407PW      WP15156   6.886   9.485  10.312  0.2957  0.2405  0.2144
 3407PW      WM15157   6.946   9.406  10.442 -0.1409 -0.0228 -0.4159
 3408PW       W15158   0.710   7.876   2.263  0.0925  0.2501 -0.3556
 3408PW      WP15159   0.819   7.793   2.291  0.0254  0.3204  0.1788
 3408PW      WM15160   0.737   7.886   2.401  0.2328 -0.7564 -0.2748
 3409PW       W15161   1.044   2.634   4.304 -0.0817 -0.0009 -0.0387
 3409PW      WP15162   0.992   2.594   4.428  0.1712  0.7923  0.3554
 3409PW      WM15163   1.176   2.635   4.348  0.0090  0.3278 -0.2954
 3410PW       W15164   6.422  11.343   9.049  0.1339 -0.1404  0.0559
 3410PW      WP15165   6.409  11.450   9.138  0.0540 -0.0461 -0.0681
 3410PW      WM15166   6.304  11.362   8.976  0.1921  0.4800  0.0967
 3411PW       W15167   3.859   6.501   4.345 -0.1476 -0.2097 -0.5608
 3411PW      WP15168   3.952   6.595   4.298  0.0681  0.0604  0.3124
 3411PW      WM15169   3.982   6.442   4.311 -0.0610 -0.1537 -0.3536
 3412PW       W15170   2.004   9.660   5.482  0.1467 -0.3777  0.1642
 3412PW      WP15171   1.918   9.737   5.402  0.0921 -0.3787  0.2214
 3412PW      WM15172   1.903   9.563   5.480  0.0685 -0.2959 -0.0807
 3413PW       W15173   2.621   6.201   1.602  0.2330 -0.4306  0.2230
 3413PW      WP15174   2.711   6.135   1.685  0.5142 -0.3040  0.0247
 3413PW      WM15175   2.747   6.239   1.556  0.0300  0.2938  0.1926
 3414PW       W15176   5.402  10.070   3.575 -0.1012 -0.4652 -0.5455
 3414PW      WP15177   5.348  10.183   3.638  0.2714 -0.6907  0.2336
 3414PW      WM15178   5.411   9.932   3.593 -0.2928 -0.3786  0.6048
 3415PW       W15179   4.738   8.889   2.214 -0.0845 -0.1835  0.4344
 3415PW      WP15180   4.875   8.917   2.206 -0.1087 -0.0794  0.3654
 3415PW      WM15181   4.711   9.020   2.172 -0.0653 -0.3865 -0.2865
 3416PW       W15182   1.581   9.627   0.156  0.2165 -0.1938  0.0640
 3416PW      WP15183   1.629   9.542   0.056 -0.1224 -0.1815 -0.1187
 3416PW      WM15184   1.537   9.494   0.161 -0.4019 -0.0017  0.2344
 3417PW       W15185  10.126   7.250   3.367 -0.0825  0.1075  0.1624
 3417PW      WP15186  10.145   7.238   3.229 -0.2423 -0.3108  0.1684
 3417PW      WM15187  10.203   7.214   3.478  0.6025  0.0231 -0.3162
 3418PW       W15188   1.316   5.777   0.814 -0.8522  0.3132  0.0871
 3418PW      WP15189   1.370   5.722   0.697 -0.0759  0.2582  0.4381
 3418PW      WM15190   1.305   5.757   0.952 -0.1099  0.1058  0.1364
 3419PW       W15191  -0.009   6.545   1.959  0.2418 -0.0181  0.1805
 3419PW      WP15192  -0.075   6.425   1.929  0.0729  0.0921  0.1059
 3419PW      WM15193   0.100   6.599   1.891  0.0377  0.4750  0.2275
 3420PW       W15194  10.974   6.736  11.009 -0.0146  0.3776 -0.2588
 3420PW      WP15195  11.005   6.734  11.145  0.2800  0.4216 -0.3231
 3420PW      WM15196  11.113   6.748  11.021  0.0332  0.2831 -0.6550
 3421PW       W15197   8.317   0.112  12.483 -0.3997  0.1090 -0.0817
 3421PW      WP15198   8.320   0.209  12.584  0.1446  0.1587 -0.1357
 3421PW      WM15199   8.178   0.127  12.475 -0.4257  0.5686  0.7417
 3422PW       W15200   4.950  10.533   0.655  0.1302  0.2896 -0.0665
 3422PW      WP15201   5.048  10.612   0.593 -0.0795  0.3323 -0.3490
 3422PW      WM15202   4.872  10.454   0.570  0.4256  0.0481 -0.1214
 3423PW       W15203   5.946   1.554  11.129 -0.0790  0.3086  0.3161
 3423PW      WP15204   5.833   1.636  11.133 -0.1018  0.3716 -0.5984
 3423PW      WM15205   6.073   1.496  11.119 -0.1426  0.2368 -0.2160
 3424PW       W15206   1.650   5.344   2.507  0.1904  0.1949  0.0993
 3424PW      WP15207   1.625   5.279   2.385 -0.0384  0.1164  0.1854
 3424PW      WM15208   1.514   5.313   2.505  0.2070  0.1147  0.1775
 3425PW       W15209   1.788   4.622   0.996  0.2389  0.1517 -0.5343
 3425PW      WP15210   1.691   4.688   0.921 -0.1022 -0.0204 -0.2606
 3425PW      WM15211   1.835   4.750   1.026 -0.0275  0.0803  0.3121
 3426PW       W15212  11.258   5.468  12.243  0.1445  0.2534  0.0487
 3426PW      WP15213  11.150   5.391  12.199  0.0347  0.0092  0.6865
 3426PW      WM15214  11.319   5.592  12.221 -0.0290  0.3143 -0.0989
 3427PW       W15215   1.522   8.784   3.683  0.1789 -0.1127  0.1221
 3427PW      WP15216   1.597   8.795   3.565 -0.5059  0.2526 -0.3101
 3427PW      WM15217   1.494   8.920   3.703 -0.2950 -0.1711 -0.0780
 3428PW       W15218   8.929   9.674   1.305 -0.3776 -0.2459  0.2095
 3428PW      WP15219   8.938   9.780   1.215  0.3781 -0.3248  0.1654
 3428PW      WM15220   8.983   9.559   1.246  0.1320  0.0345  0.1020
 3429PW       W15221   6.084   7.536   0.663 -0.3361  0.0826  0.1060
 3429PW      WP15222   6.040   7.425   0.591 -0.1733  0.0653  0.0319
 3429PW      WM15223   6.077   7.614   0.779  0.1413  0.4386 -0.0877
 3430PW       W15224   0.143   3.189   9.426 -0.5059 -0.0210 -0.1544
 3430PW      WP15225   0.098   3.064   9.380 -0.3097 -0.4002  0.5916
 3430PW      WM15226   0.253   3.226   9.504 -0.2288 -0.4390 -0.3216
 3431PW       W15227   3.401  11.658  11.085  0.1196 -0.0510  0.0258
 3431PW      WP15228   3.395  11.749  11.191 -0.2700  0.4277 -0.3819
 3431PW      WM15229   3.484  11.580  11.168 -0.3145 -0.1283  0.4057
 3432PW       W15230   9.548  10.661   4.837 -0.3475 -0.1432  0.2358
 3432PW      WP15231   9.511  10.543   4.903 -0.1129 -0.2604  0.1640
 3432PW      WM15232   9.459  10.741   4.764  0.2372  0.5425  0.2202
 3433PW       W15233  10.806   5.760  10.693 -0.2494  0.2185  0.0928
 3433PW      WP15234  10.670   5.743  10.722 -0.1956 -0.2013  0.1319
 3433PW      WM15235  10.751   5.877  10.638 -0.0526  0.0384 -0.5267
 3434PW       W15236  11.656   0.574   3.189 -0.2995 -0.3601  0.1361
 3434PW      WP15237  11.761   0.492   3.231 -0.0693  0.1353  0.5761
 3434PW      WM15238  11.572   0.677   3.146  0.0430 -0.0286  0.2350
 3435PW       W15239   4.100  10.606   2.153 -0.0452  0.3663 -0.0254
 3435PW      WP15240   4.094  10.550   2.281 -0.2797  0.1291 -0.1355
 3435PW      WM15241   3.993  10.691   2.122 -0.2667 -0.1218 -0.7265
 3436PW       W15242  10.940   9.387  11.559  0.3159 -0.0319 -0.1659
 3436PW      WP15243  10.908   9.477  11.662  0.1811 -0.3392  0.0679
 3436PW      WM15244  10.943   9.307  11.444 -0.0067  0.0780 -0.2556
 3437PW       W15245   5.234   9.647   9.070  0.2547 -0.0882 -0.2709
 3437PW      WP15246   5.105   9.604   9.040  0.0923 -0.0578  0.3160
 3437PW      WM15247   5.247   9.517   9.121 -0.0520  0.0531  0.2075
 3438PW       W15248   1.803   3.002   4.896  0.3100  0.1772  0.5257
 3438PW      WP15249   1.911   3.078   4.849 -0.2211  0.3260 -0.6586
 3438PW      WM15250   1.941   2.985   4.908  0.3588  0.1320  0.0250
 3439PW       W15251   1.040   1.189   4.701 -0.1481 -0.2206 -0.0464
 3439PW      WP15252   1.089   1.157   4.573 -0.3465 -0.8856  0.0237
 3439PW      WM15253   1.128   1.194   4.810 -0.2740  0.2117  0.0419
 3440PW       W15254  10.954   2.444   8.392  0.2579 -0.0301 -0.0656
 3440PW      WP15255  10.890   2.529   8.483  0.5360 -0.1750  0.2777
 3440PW      WM15256  10.827   2.457   8.334  0.0229 -0.0692  0.4142
 3441PW       W15257   6.595   4.627   3.761  0.1521  0.1129 -0.2119
 3441PW      WP15258   6.671   4.550   3.672  0.2412  0.4331 -0.4208
 3441PW      WM15259   6.721   4.688   3.763  0.3449 -0.2715 -0.1812
 3442PW       W15260   4.329   0.877   1.403  0.2862  0.0444 -0.0141
 3442PW      WP15261   4.267   0.870   1.278 -0.3932  0.3768  0.2833
 3442PW      WM15262   4.444   0.928   1.465  0.1242  0.3213  0.0661
 3443PW       W15263   2.165   9.282   1.538  0.1575 -0.1429  0.1022
 3443PW      WP15264   2.255   9.248   1.436  0.0699 -0.0348 -0.0117
 3443PW      WM15265   2.121   9.382   1.450  0.1383 -0.4844 -0.2936
 3444PW       W15266   4.545   9.285  10.505  0.1074  0.0679  0.0736
 3444PW      WP15267   4.609   9.167  10.543  0.1957  0.1855  0.3036
 3444PW      WM15268   4.422   9.312  10.444  0.3788 -0.1302 -0.6082
 3445PW       W15269  10.423   5.136   3.524  0.1966  0.3777  0.2100
 3445PW      WP15270  10.555   5.117   3.565  0.2775  0.0793 -0.1584
 3445PW      WM15271  10.331   5.093   3.620  0.0481 -0.4706 -0.2607
 3446PW       W15272   3.196  11.671   9.463 -0.0064  0.2081  0.0838
 3446PW      WP15273   3.157  11.722   9.338 -0.4398 -0.2376  0.0226
 3446PW      WM15274   3.064  11.624   9.467 -0.1011  0.4645  0.0607
 3447PW       W15275   2.072  10.067   0.786 -0.0139  0.4373 -0.2636
 3447PW      WP15276   1.968  10.140   0.845 -0.1340 -0.0202  0.1188
 3447PW      WM15277   2.026   9.964   0.703  0.1265  0.1814 -0.0306
 3448PW       W15278   6.136  11.337   9.827 -0.2274 -0.0272  0.0397
 3448PW      WP15279   6.004  11.362   9.864 -0.1958 -0.3278  0.3915
 3448PW      WM15280   6.144  11.269   9.950  0.0819 -0.2496 -0.0951
 3449PW       W15281   9.534   1.559  13.246  0.1573 -0.2681  0.2214
 3449PW      WP15282   9.620   1.661  13.204  0.2432 -0.4157  0.0379
 3449PW      WM15283   9.661   1.572  13.189  0.0623 -0.2917 -0.0008
 3450PW       W15284   2.020   6.137   3.709  0.0213  0.1798  0.3558
 3450PW      WP15285   1.943   6.185   3.602  0.4467  0.1075  0.0060
 3450PW      WM15286   1.918   6.065   3.645  0.3150  0.1283 -0.0691
 3451PW       W15287   8.363   2.219   1.418  0.1652  0.3550 -0.6706
 3451PW      WP15288   8.499   2.245   1.436  0.1836 -0.1283  0.1998
 3451PW      WM15289   8.480   2.151   1.384  0.1466 -0.4011  0.4816
 3452PW       W15290   6.904   9.476   2.182 -0.2491 -0.2001 -0.0049
 3452PW      WP15291   6.975   9.582   2.126 -0.1055 -0.3517 -0.1148
 3452PW      WM15292   6.802   9.566   2.148 -0.1267 -0.0397  0.0462
 3453PW       W15293  10.197  11.961   9.067 -0.2029  0.1930  0.4114
 3453PW      WP15294  10.128  12.047   8.980  0.4166  0.1644 -0.1504
 3453PW      WM15295  10.293  12.037   8.998 -0.3454 -0.0060 -0.0282
 3454PW       W15296   3.582  11.633   4.534 -0.0697 -0.0932 -0.1099
 3454PW      WP15297   3.494  11.715   4.607  0.1425 -0.3572  0.4781
 3454PW      WM15298   3.638  11.505   4.520  0.6497  0.2026 -0.0996
 3455PW       W15299   7.004   1.820  10.283  0.3691 -0.7976  0.1392
 3455PW      WP15300   7.023   1.862  10.150 -0.3445  0.0005  0.2511
 3455PW      WM15301   7.100   1.774  10.192  0.3616 -0.0017 -0.3161
 3456PW       W15302   6.078  10.031   3.007  0.1025 -0.3618  0.0766
 3456PW      WP15303   5.988  10.079   3.102 -0.1524  0.4769 -0.5366
 3456PW      WM15304   5.999  10.132   2.952  0.0366 -0.3125  0.2589
 3457PW       W15305   5.386   1.573   4.939  0.0051 -0.2685  0.0540
 3457PW      WP15306   5.474   1.561   5.048  0.2808  0.0384 -0.1235
 3457PW      WM15307   5.384   1.637   4.814 -0.1098 -0.4422 -0.0348
 3458PW       W15308   0.308   5.554   8.707 -0.2316 -0.1424 -0.2888
 3458PW      WP15309   0.362   5.428   8.681  0.3211 -0.0666  0.3668
 3458PW      WM15310   0.303   5.682   8.765  0.3438 -0.3963  0.3785
 3459PW       W15311   6.450   0.681   8.353  0.0382  0.1070  0.6702
 3459PW      WP15312   6.500   0.555   8.318 -0.2104  0.1056  0.2934
 3459PW      WM15313   6.318   0.638   8.340  0.1514 -0.1161  0.0857
 3460PW       W15314  10.060  10.548   4.783  0.1860  0.0139  0.0965
 3460PW      WP15315   9.988  10.507   4.670 -0.2102  0.7016  0.0731
 3460PW      WM15316  10.150  10.648   4.746 -0.0247  0.1592 -0.0383
 3461PW       W15317   0.893   4.626   9.151  0.1008 -0.4377 -0.0623
 3461PW      WP15318   0.793   4.659   9.244  0.1166 -0.4065 -0.0566
 3461PW      WM15319   1.016   4.684   9.120 -0.0441 -0.2482 -0.3102
 3462PW       W15320   7.558   3.161   4.009 -0.0255 -0.0782  0.1175
 3462PW      WP15321   7.663   3.234   3.952 -0.5896  0.5637 -0.1675
 3462PW      WM15322   7.437   3.092   3.995 -0.2751  0.3792 -0.0862
 3463PW       W15323  10.971   2.406  11.728  0.0303  0.0269 -0.0078
 3463PW      WP15324  10.995   2.394  11.865 -0.4140 -0.0649  0.0689
 3463PW      WM15325  11.078   2.473  11.789  0.2450 -0.4487  0.1621
 3464PW       W15326  11.453   8.348   2.240  0.3290 -0.1175  0.0005
 3464PW      WP15327  11.580   8.359   2.181  0.3750 -0.1852  0.0873
 3464PW      WM15328  11.370   8.407   2.143  0.5465  0.2038  0.0021
 3465PW       W15329   1.316   3.518   4.129 -0.3794 -0.1269 -0.2267
 3465PW      WP15330   1.181   3.543   4.100 -0.4980 -0.1518  0.2537
 3465PW      WM15331   1.279   3.450   4.246 -0.0293  0.0870  0.0198
 3466PW       W15332   8.050   8.642  11.981  0.3218 -0.4571  0.6071
 3466PW      WP15333   8.148   8.741  11.995 -0.2018  0.1494  0.2250
 3466PW      WM15334   8.028   8.504  11.966 -0.6939 -0.2939  0.2087
 3467PW       W15335   9.819   1.860   0.160 -0.2838 -0.0227 -0.1475
 3467PW      WP15336   9.826   1.770   0.053 -0.0336 -0.0867 -0.0804
 3467PW      WM15337   9.770   1.990   0.138  0.4220  0.2172 -0.4468
 3468PW       W15338   2.290   0.837   3.324  0.3579  0.0224 -0.2157
 3468PW      WP15339   2.300   0.784   3.453  0.1564 -0.2767 -0.3178
 3468PW      WM15340   2.406   0.813   3.249  0.8138 -0.5728  0.6050
 3469PW       W15341   6.134   4.328  12.999 -0.1339  0.1133  0.2172
 3469PW      WP15342   6.268   4.368  12.991 -0.1399  0.1017  0.0588
 3469PW      WM15343   6.069   4.389  12.892 -0.0382 -0.4689 -0.1970
 3470PW       W15344   4.232   5.312  13.306 -0.1261  0.2940  0.0904
 3470PW      WP15345   4.101   5.290  13.352  0.0080 -0.3190  0.2280
 3470PW      WM15346   4.133   5.406  13.274 -0.2847  0.1253  0.0724
 3471PW       W15347   6.886   2.095  12.342  0.3127 -0.2089  0.2524
 3471PW      WP15348   6.934   2.147  12.221  0.2129 -0.4406  0.1104
 3471PW      WM15349   7.003   2.150  12.394  0.6963 -0.7621  0.0290
 3472PW       W15350   2.881   5.472   3.966 -0.4627 -0.3997 -0.2021
 3472PW      WP15351   2.891   5.366   4.058 -0.7250 -0.4988 -0.2830
 3472PW      WM15352   3.002   5.533   3.930 -0.3271 -0.4118  0.2061
 3473PW       W15353   4.267   4.211  11.931  0.1869  0.1845  0.1238
 3473PW      WP15354   4.245   4.098  11.851 -0.1681  0.0351  0.4190
 3473PW      WM15355   4.185   4.225  12.043  0.0010 -0.5316  0.1005
 3474PW       W15356   8.827  10.414   2.437 -0.1803  0.8220  0.1905
 3474PW      WP15357   8.903  10.341   2.530 -0.0482  0.2062 -0.3647
 3474PW      WM15358   8.726  10.416   2.339 -0.1337 -0.1066  0.0720
 3475PW       W15359   8.983   6.963  11.817 -0.0696  0.3939 -0.0865
 3475PW      WP15360   9.108   7.023  11.842  0.0227  0.0966  0.1898
 3475PW      WM15361   9.014   6.989  11.683 -0.2991  0.1384 -0.1934
 3476PW       W15362   9.111   2.991   4.616  0.1356  0.1042 -0.3472
 3476PW      WP15363   9.244   2.948   4.622  0.0058 -0.2783  0.0658
 3476PW      WM15364   9.086   3.128   4.613  0.1872  0.1181 -0.1631
 3477PW       W15365  10.651   2.109   3.753 -0.2907 -0.0004  0.5860
 3477PW      WP15366  10.723   1.999   3.799  0.0348  0.0114  0.1321
 3477PW      WM15367  10.545   2.151   3.672  0.2279  0.3286  0.0389
 3478PW       W15368   4.649   8.671   4.149  0.0244 -1.2868 -0.1299
 3478PW      WP15369   4.752   8.658   4.244 -0.3573  0.2749  0.6722
 3478PW      WM15370   4.532   8.719   4.209 -0.0450 -0.8719 -0.5681
 3479PW       W15371   0.417   3.735   2.543 -0.0924  0.2047  0.3402
 3479PW      WP15372   0.464   3.607   2.512 -0.1524  0.1578  0.4398
 3479PW      WM15373   0.501   3.839   2.584  0.1288  0.3058 -0.3097
 3480PW       W15374   5.353   2.285   0.243  0.5469 -0.0021 -0.0252
 3480PW      WP15375   5.346   2.220   0.119  0.0811 -0.5871  0.2849
 3480PW      WM15376   5.438   2.174   0.247  0.2686 -0.2740 -0.7265
 3481PW       W15377  11.541   8.675   2.713 -0.0496  0.5670 -0.0347
 3481PW      WP15378  11.626   8.629   2.612 -0.0480 -0.2411  0.3010
 3481PW      WM15379  11.495   8.632   2.588 -0.3891 -0.0850  0.2927
 3482PW       W15380   3.046   9.374   2.736  0.0943  0.5058  0.0117
 3482PW      WP15381   3.126   9.333   2.628  0.0408 -0.0530  0.1721
 3482PW      WM15382   2.917   9.389   2.685 -0.1179 -0.2924  0.2516
 3483PW       W15383   2.996   6.820   1.476  0.2116  0.2456  0.0753
 3483PW      WP15384   3.020   6.695   1.418 -0.0599  0.3041 -0.1749
 3483PW      WM15385   2.936   6.816   1.350  0.2451 -0.2411  0.0665
 3484PW       W15386   0.206   6.892  12.153 -0.0782  0.1811  0.5013
 3484PW      WP15387   0.163   7.016  12.105  0.0465  0.1375  0.2691
 3484PW      WM15388   0.186   6.919  12.289  0.2972  0.0635  0.5861
 3485PW       W15389   8.305   8.061   8.067  0.2785  0.5271  0.2137
 3485PW      WP15390   8.379   8.009   8.173  0.8809  0.1548 -0.3480
 3485PW      WM15391   8.408   7.984   8.123 -0.2302 -0.2451  0.1553
 3486PW       W15392   0.506   1.864   8.979  0.0446 -0.2213  0.0344
 3486PW      WP15393   0.444   1.984   9.014  0.1647 -0.1080 -0.1306
 3486PW      WM15394   0.519   1.738   9.039  0.4082 -0.0732  0.2847
 3487PW       W15395   4.235  10.379   4.090 -0.1759  0.4684 -0.1597
 3487PW      WP15396   4.333  10.472   4.124 -0.2110  0.4867 -0.1074
 3487PW      WM15397   4.347  10.325   4.026 -0.2779 -0.2440  0.2093
 3488PW       W15398  10.901  11.120  13.105  0.4605  0.3541  0.0506
 3488PW      WP15399  10.889  11.203  12.994  0.0392 -0.4223 -0.5357
 3488PW      WM15400  10.811  11.185  13.191  0.3330  0.4900 -0.1810
 3489PW       W15401   1.526   2.284   1.570  0.0375 -0.0152 -0.0040
 3489PW      WP15402   1.622   2.240   1.478 -0.6483  0.2214 -0.9096
 3489PW      WM15403   1.464   2.408   1.584 -0.4239 -0.1747 -0.4523
 3490PW       W15404   4.013   4.048   3.103 -0.2970  0.1976 -0.0692
 3490PW      WP15405   3.930   4.037   2.990  0.0717  0.7555 -0.4210
 3490PW      WM15406   3.963   3.974   3.211  0.3636 -0.2042 -0.0118
 3491PW       W15407   4.615  10.456   3.776 -0.0866 -0.1734  0.2991
 3491PW      WP15408   4.528  10.424   3.881 -0.5632 -0.1796 -0.0801
 3491PW      WM15409   4.692  10.485   3.662  0.1810 -0.3297  0.4370
 3492PW       W15410   9.505   5.324  11.653 -0.1661  0.2238  0.2898
 3492PW      WP15411   9.639   5.284  11.650 -0.2883 -0.2037  0.1812
 3492PW      WM15412   9.411   5.272  11.563  0.3932 -0.0292 -0.1807
 3493PW       W15413  11.735   5.756  11.529  0.4270 -0.2134  0.2848
 3493PW      WP15414  11.792   5.644  11.591 -0.0496 -0.6033  0.0497
 3493PW      WM15415  11.803   5.869  11.483 -0.2881  0.2985  0.4114
 3494PW       W15416   6.856   5.448   2.786  0.1269 -0.3184 -0.0965
 3494PW      WP15417   6.979   5.499   2.830 -0.2064  0.3468  0.1216
 3494PW      WM15418   6.858   5.556   2.697 -0.0074 -0.0183  0.2547
 3495PW       W15419   9.317   9.617   3.411 -0.0038  0.0809  0.1309
 3495PW      WP15420   9.253   9.688   3.309  0.2244 -0.0777 -0.1298
 3495PW      WM15421   9.259   9.558   3.524  0.3051  0.0361  0.2733
 3496PW       W15422   5.095   7.030   2.596 -0.7219 -0.1567 -0.0703
 3496PW      WP15423   4.981   6.956   2.631 -0.4546 -0.4982  0.1182
 3496PW      WM15424   5.099   7.157   2.654 -0.5466 -0.2406  0.1125
 3497PW       W15425   0.273   8.162   1.113 -0.1991  0.0741 -0.0075
 3497PW      WP15426   0.313   8.294   1.137  0.1032 -0.0466  0.1846
 3497PW      WM15427   0.230   8.038   1.162  0.0624 -0.0613 -0.1081
 3498PW       W15428   3.662   6.093   1.716 -0.0147  0.2904 -0.2349
 3498PW      WP15429   3.716   6.048   1.837 -0.4813  0.3240 -0.0013
 3498PW      WM15430   3.757   6.150   1.631  0.2908  0.2095  0.0424
 3499PW       W15431   5.626   8.960   0.775 -0.1676  0.2976  0.3315
 3499PW      WP15432   5.756   8.908   0.783 -0.3381 -0.2022  0.0933
 3499PW      WM15433   5.574   8.866   0.865  0.0334 -0.4504 -0.2749
 3500PW       W15434   3.717   4.614  12.608 -0.0654  0.2178 -0.1745
 3500PW      WP15435   3.605   4.554  12.667 -0.1000  0.4094 -0.0402
 3500PW      WM15436   3.779   4.626  12.483 -0.3800  0.2050 -0.3360
 3501PW       W15437  11.844   6.850   2.184  0.2206  0.2719  0.1974
 3501PW      WP15438  11.853   6.982   2.230  0.5372  0.1830  0.4063
 3501PW      WM15439  11.705   6.844   2.185  0.2335 -0.2525  0.3940
 3502PW       W15440   5.619   4.780   4.566 -0.1039  0.6134  0.0524
 3502PW      WP15441   5.748   4.760   4.616 -0.0717  0.4162 -0.1043
 3502PW      WM15442   5.538   4.695   4.489  0.1630  0.5493 -0.1668
 3503PW       W15443   8.014   1.489   4.981  0.2836 -0.3650  0.1216
 3503PW      WP15444   7.922   1.387   5.011  0.0536 -0.1986 -0.0011
 3503PW      WM15445   8.079   1.380   4.921  0.3079 -0.4326  0.2692
 3504PW       W15446   2.122   9.763   4.138  0.2785 -0.0124  0.1965
 3504PW      WP15447   2.112   9.686   4.255  0.2811 -0.0664  0.1615
 3504PW      WM15448   2.232   9.722   4.063  0.0374  0.0312 -0.1979
 3505PW       W15449   8.827   1.905   4.143 -0.2559 -0.8267 -0.0102
 3505PW      WP15450   8.957   1.921   4.193 -0.3186  0.4383 -0.0870
 3505PW      WM15451   8.702   1.911   4.208 -0.2037  0.1455  0.0670
 3506PW       W15452   0.709   1.719   4.148 -0.0125 -0.0383 -0.1106
 3506PW      WP15453   0.800   1.823   4.126  0.1337 -0.0872  0.2253
 3506PW      WM15454   0.577   1.727   4.105 -0.0010 -0.0573 -0.1498
 3507PW       W15455   7.881   3.246   8.835 -0.3714 -0.4288 -0.0631
 3507PW      WP15456   7.760   3.308   8.802 -0.0913  0.3864  0.3076
 3507PW      WM15457   7.883   3.189   8.963 -0.0600 -0.2655  0.0113
 3508PW       W15458   6.337   9.007  12.552 -0.0682  0.0158  0.1557
 3508PW      WP15459   6.254   9.083  12.637 -0.2718 -0.1520  0.1094
 3508PW      WM15460   6.357   8.871  12.577 -0.0626 -0.0500 -0.1868
 3509PW       W15461   2.491   7.211   1.705 -0.8667 -0.0185  0.1030
 3509PW      WP15462   2.438   7.166   1.583  0.1734  0.2046 -0.4921
 3509PW      WM15463   2.525   7.329   1.772  0.3453 -0.1629 -0.1487
 3510PW       W15464   6.699   8.202   8.670  0.2654 -0.0044  0.0445
 3510PW      WP15465   6.718   8.156   8.539 -0.1186  0.1137 -0.0599
 3510PW      WM15466   6.711   8.090   8.752  0.4000  0.1560  0.2501
 3511PW       W15467  11.122   7.925   3.993  0.0046  0.4465  0.0809
 3511PW      WP15468  11.110   8.012   3.884  0.3031 -0.0270 -0.3525
 3511PW      WM15469  11.186   7.935   4.117 -0.3006  0.4182  0.2462
 3512PW       W15470   2.876   7.878  11.243  0.6415  0.3182 -0.1123
 3512PW      WP15471   2.865   8.015  11.270  0.3706  0.2957 -0.0992
 3512PW      WM15472   2.838   7.844  11.112  0.1230  0.1056  0.0787
 3513PW       W15473   4.361   6.444   8.887 -0.4218 -0.2421  0.4433
 3513PW      WP15474   4.227   6.415   8.858 -0.5367  0.5275  0.0678
 3513PW      WM15475   4.471   6.414   8.807 -0.6485  0.0384  0.0094
 3514PW       W15476  10.811   7.226  12.960  0.1857  0.3568  0.0955
 3514PW      WP15477  10.888   7.188  13.070  0.2284 -0.1100 -0.0847
 3514PW      WM15478  10.780   7.176  12.833  0.2088  0.1910  0.1550
 3515PW       W15479  10.727   2.947   3.314 -0.3052  0.2162  0.2206
 3515PW      WP15480  10.604   2.907   3.369 -0.2442  0.4235  0.5221
 3515PW      WM15481  10.815   3.048   3.273  0.0433 -0.1061  0.1458
 3516PW       W15482   1.549  10.654   4.539 -0.0836 -0.4498  0.3172
 3516PW      WP15483   1.577  10.587   4.419  0.1076  0.3909 -0.1506
 3516PW      WM15484   1.461  10.545   4.527  0.1141 -0.5767 -0.0608
 3517PW       W15485   2.947   0.518  10.965  0.4978 -0.1795  0.1268
 3517PW      WP15486   2.901   0.400  11.024 -0.0101 -0.2053 -0.2866
 3517PW      WM15487   3.028   0.625  10.925  0.1721  0.0370  0.0356
 3518PW       W15488   9.890   2.334   0.214  0.0206  0.1135 -0.5009
 3518PW      WP15489   9.787   2.239   0.224  0.3851 -0.2615  0.0182
 3518PW      WM15490   9.919   2.319   0.351 -0.1882 -0.6244 -0.5176
 3519PW       W15491   1.908   1.805   9.944 -0.3798 -0.0666 -0.1635
 3519PW      WP15492   1.798   1.746  10.007 -0.2892 -0.1976 -0.1253
 3519PW      WM15493   1.987   1.768   9.835  0.7794  0.8743  0.2455
 3520PW       W15494   5.815   4.645   9.096  0.0659 -0.0328  0.3285
 3520PW      WP15495   5.816   4.785   9.097  0.2328 -0.0102 -0.3425
 3520PW      WM15496   5.774   4.546   9.006 -0.3767  0.3419  0.0960
 3521PW       W15497   6.068   0.571   9.796 -0.3324 -0.0781 -0.3052
 3521PW      WP15498   6.161   0.664   9.846 -0.1109 -0.5266  0.1603
 3521PW      WM15499   5.997   0.478   9.720  0.0798 -0.5599 -0.1255
 3522PW       W15500  10.716   8.248   4.424  0.0771  0.2280  0.1552
 3522PW      WP15501  10.667   8.331   4.322 -0.0603  0.1499  0.1571
 3522PW      WM15502  10.580   8.226   4.444 -0.1110  0.4585 -0.6635
 3523PW       W15503   5.803   9.505   9.659 -0.1479  0.1003  0.6400
 3523PW      WP15504   5.675   9.554   9.630 -0.1376 -0.0358  0.3450
 3523PW      WM15505   5.924   9.455   9.710  0.1184 -0.3264 -0.2997
 3524PW       W15506  11.004   8.110   2.658 -0.0797  0.0239  0.2943
 3524PW      WP15507  11.082   8.045   2.754  0.0388 -0.0282  0.1638
 3524PW      WM15508  10.911   8.031   2.589  0.2334 -0.3627  0.2932
 3525PW       W15509   9.858   4.757  10.950 -0.5139 -0.1510  0.1668
 3525PW      WP15510   9.980   4.734  11.015 -0.7071 -0.4449  0.4368
 3525PW      WM15511   9.835   4.859  10.857 -0.3663 -0.1408  0.1401
 3526PW       W15512   4.518  10.327  11.194  0.0478 -0.2018  0.1989
 3526PW      WP15513   4.460  10.369  11.314  0.1278  0.0083  0.1661
 3526PW      WM15514   4.647  10.346  11.143 -0.0590 -0.3458 -0.1363
 3527PW       W15515   4.020   0.488   1.454  0.2190  0.0685  0.1703
 3527PW      WP15516   3.978   0.381   1.534 -0.2630  0.2018  0.1158
 3527PW      WM15517   3.964   0.557   1.345 -0.2882 -0.3151  0.1702
 3528PW       W15518   6.262   9.459   2.959 -0.0602 -0.1236 -0.1980
 3528PW      WP15519   6.198   9.391   3.064 -0.0915 -0.0333 -0.1582
 3528PW      WM15520   6.260   9.592   2.918 -0.0686  0.0030  0.1939
 3529PW       W15521   3.506  10.447  10.282  0.6456  0.0699  0.5692
 3529PW      WP15522   3.515  10.307  10.272 -0.0959  0.0053  0.4745
 3529PW      WM15523   3.475  10.458  10.146  0.1147  0.3721  0.7016
 3530PW       W15524   5.714   3.501  11.110  0.2961  0.2157 -0.3254
 3530PW      WP15525   5.832   3.429  11.086  0.4813  0.5485 -0.4439
 3530PW      WM15526   5.809   3.601  11.127  0.1228  0.3785 -0.2988
 3531PW       W15527   2.145   0.116  12.905  0.2047 -0.1081  0.1418
 3531PW      WP15528   2.176   0.241  12.851  0.0216 -0.0378  0.1941
 3531PW      WM15529   2.179   0.158  13.035 -0.3024  0.3139  0.1538
 3532PW       W15530   0.788   6.288   1.474  0.4337  0.0526 -0.1410
 3532PW      WP15531   0.872   6.331   1.371  0.6291 -0.3963 -0.1807
 3532PW      WM15532   0.883   6.186   1.461  0.3284 -0.0383 -0.2086
 3533PW       W15533   4.562   5.655   3.725  0.2656  0.3271  0.2331
 3533PW      WP15534   4.531   5.527   3.773  0.1445  0.3241  0.1491
 3533PW      WM15535   4.570   5.767   3.640 -0.2715  0.6359  0.5625
 3534PW       W15536   8.767   1.511  10.025 -0.4128 -0.6496  0.0157
 3534PW      WP15537   8.855   1.459  10.119 -0.0435 -0.2623 -0.1012
 3534PW      WM15538   8.798   1.426   9.917  0.4144 -0.2316 -0.1139
 3535PW       W15539   8.169   8.687   0.145 -0.3254 -0.0279  0.0090
 3535PW      WP15540   8.246   8.750   0.046 -0.1278  0.1935  0.2962
 3535PW      WM15541   8.182   8.602   0.255 -0.0581 -0.1334 -0.0988
 3536PW       W15542   8.878   4.753  11.358 -0.2491 -0.4243 -0.3020
 3536PW      WP15543   9.005   4.726  11.409 -0.0652 -0.0716 -0.5478
 3536PW      WM15544   8.840   4.726  11.490 -0.1500 -0.0337 -0.1843
 3537PW       W15545   6.425   0.924   2.550  0.3434 -0.0660  0.2486
 3537PW      WP15546   6.506   0.939   2.436  0.1771  0.6901  0.2093
 3537PW      WM15547   6.440   0.879   2.682 -0.4319 -0.1955  0.3146
 3538PW       W15548   3.314   2.909  11.528 -0.0066 -0.1506 -0.2527
 3538PW      WP15549   3.184   2.866  11.557 -0.1325  0.3464 -0.0244
 3538PW      WM15550   3.273   2.841  11.413  0.4483 -0.4221 -0.2691
 3539PW       W15551   1.501   3.895  12.464 -0.0838 -0.0998  0.2456
 3539PW      WP15552   1.400   3.811  12.414 -0.0159  0.0372 -0.1371
 3539PW      WM15553   1.505   4.007  12.547  0.7992 -0.3440  0.5892
 3540PW       W15554   4.651   9.108   3.917  0.1031  0.3205 -0.2568
 3540PW      WP15555   4.715   8.985   3.901 -0.2469  0.1041 -0.0513
 3540PW      WM15556   4.730   9.138   4.029 -0.1337 -0.4099  0.1376
 3541PW       W15557   9.687   7.925   5.218 -0.0832 -0.1338 -0.2042
 3541PW      WP15558   9.603   8.026   5.267  0.3526  0.1621 -0.0353
 3541PW      WM15559   9.592   7.825   5.194 -0.1395 -0.0623 -0.2882
 3542PW       W15560   3.226   1.233   3.560 -0.0315  0.4669  0.0339
 3542PW      WP15561   3.287   1.140   3.645  0.3036  0.4785 -0.1834
 3542PW      WM15562   3.088   1.254   3.575 -0.1418 -0.0347 -0.1667
 3543PW       W15563   7.917   3.400   9.627  0.1307  0.3617  0.2509
 3543PW      WP15564   7.962   3.490   9.723  0.5458 -0.1572  0.5723
 3543PW      WM15565   7.991   3.436   9.514 -0.3747  0.2842 -0.1265
 3544PW       W15566   3.365   9.285   2.346 -0.0382 -0.5369  0.4742
 3544PW      WP15567   3.334   9.230   2.221  0.4209  0.3373 -0.0707
 3544PW      WM15568   3.297   9.311   2.466 -0.1407  0.1421  0.2873
 3545PW       W15569   7.562   7.347   2.175  0.3224  0.1201  0.0281
 3545PW      WP15570   7.482   7.461   2.154  0.0100 -0.0550  0.2237
 3545PW      WM15571   7.588   7.211   2.155  0.0274 -0.0119  0.4724
 3546PW       W15572  10.134   7.637  10.629 -0.0618 -0.1712 -0.0662
 3546PW      WP15573  10.217   7.589  10.526  0.3459 -0.6581  0.4568
 3546PW      WM15574  10.137   7.591  10.761 -0.2646 -0.0565 -0.0207
 3547PW       W15575   6.544   9.266   9.550  0.1821 -0.5098 -0.0934
 3547PW      WP15576   6.678   9.302   9.535 -0.0809  0.6024 -0.1429
 3547PW      WM15577   6.547   9.287   9.412  0.2120  0.1227 -0.0111
 3548PW       W15578   0.321   1.205   8.277  0.1615 -0.1796  0.0297
 3548PW      WP15579   0.461   1.208   8.272  0.1549 -0.1396 -0.2378
 3548PW      WM15580   0.290   1.335   8.235  0.3009 -0.1208  0.1061
 3549PW       W15581   2.811   4.144  11.765 -0.1841 -0.6876 -0.2550
 3549PW      WP15582   2.808   4.006  11.784 -0.1179 -0.6999 -0.3290
 3549PW      WM15583   2.808   4.173  11.902 -0.1802  0.5143 -0.4541
 3550PW       W15584   4.481   0.204   8.557 -0.1653 -0.0292 -0.1410
 3550PW      WP15585   4.478   0.294   8.450  0.5659 -0.2628 -0.3880
 3550PW      WM15586   4.457   0.085   8.486 -0.4865 -0.1320  0.1244
 3551PW       W15587   6.026   1.074  13.046 -0.0958 -0.1404 -0.3720
 3551PW      WP15588   5.975   1.063  13.176  0.1085  0.3519 -0.2387
 3551PW      WM15589   6.149   1.006  13.055 -0.3213 -0.5121  0.2575
 3552PW       W15590  10.675   9.465  13.317  0.1788  0.3409  0.1481
 3552PW      WP15591  10.581   9.425  13.221  0.3388  0.2338  0.0347
 3552PW      WM15592  10.760   9.465  13.206 -0.2808  0.1523 -0.2187
 3553PW       W15593   7.691   7.469   0.182 -0.1084  0.1711 -0.0162
 3553PW      WP15594   7.710   7.607   0.199  0.8332  0.0879 -0.1403
 3553PW      WM15595   7.630   7.564   0.099 -0.2287  0.1230  0.0158
 3554PW       W15596   2.413   5.176  12.864  0.0314 -0.1816 -0.0611
 3554PW      WP15597   2.374   5.303  12.821 -0.2831 -0.3554 -0.3104
 3554PW      WM15598   2.326   5.175  12.754 -0.4972  0.1931  0.3310
 3555PW       W15599   2.162   5.962  12.949 -0.3516 -0.1006 -0.0054
 3555PW      WP15600   2.044   5.975  12.875 -0.2584  0.1946 -0.1111
 3555PW      WM15601   2.116   5.894  13.062  0.1500 -0.2857  0.1022
 3556PW       W15602  11.459   7.506  10.566  0.0559  0.0308  0.0133
 3556PW      WP15603  11.510   7.511  10.435 -0.1384  0.0887 -0.0624
 3556PW      WM15604  11.357   7.544  10.477 -0.0847  0.0486  0.1807
 3557PW       W15605   1.033   6.267   2.778  0.7530  0.4125  0.4941
 3557PW      WP15606   1.109   6.157   2.738 -0.3537 -0.2649  0.0186
 3557PW      WM15607   0.956   6.278   2.894 -0.4273 -0.3437 -0.1118
 3558PW       W15608   7.677   6.675   8.673 -0.1597 -0.1485  0.2101
 3558PW      WP15609   7.794   6.601   8.655  0.1027  0.3170 -0.1003
 3558PW      WM15610   7.552   6.710   8.619 -0.3182 -0.2977  0.4695
 3559PW       W15611   8.720   1.653  12.219 -0.0923  0.1705 -0.5108
 3559PW      WP15612   8.791   1.579  12.314 -0.5263 -0.0185 -0.3191
 3559PW      WM15613   8.627   1.560  12.265 -0.0069  0.2349 -0.1995
 3560PW       W15614   4.559   8.915  11.286 -0.1843 -0.0092 -0.3248
 3560PW      WP15615   4.430   8.865  11.306 -0.1013 -0.0859  0.0494
 3560PW      WM15616   4.622   8.795  11.322  0.2931  0.1196 -0.6731
 3561PW       W15617   3.293   5.877  12.254 -0.0325  0.0196 -0.1191
 3561PW      WP15618   3.218   5.983  12.306 -0.1108 -0.1458  0.1181
 3561PW      WM15619   3.333   5.842  12.125  0.2720  0.3008 -0.1084
 3562PW       W15620   6.973   0.811  13.198 -0.2387 -0.5019 -0.3904
 3562PW      WP15621   6.974   0.736  13.316  0.3521  0.1136  0.0358
 3562PW      WM15622   7.008   0.921  13.118  0.7935 -0.1731  0.4042
 3563PW       W15623   4.564   5.059   0.772  0.7209  0.1892 -0.2407
 3563PW      WP15624   4.594   5.193   0.745  0.0768  0.4865  0.3632
 3563PW      WM15625   4.556   5.002   0.644 -0.2603  0.1899 -0.2164
 3564PW       W15626   0.156   1.854   9.474  0.2782 -0.5913  0.2273
 3564PW      WP15627   0.071   1.798   9.570 -0.1102  0.0988  0.3177
 3564PW      WM15628   0.181   1.981   9.529  0.2019 -0.3267 -0.3125
 3565PW       W15629  11.056   1.302  12.969 -0.4030  0.0391  0.1493
 3565PW      WP15630  11.076   1.409  13.057 -0.1158 -0.0777  0.2297
 3565PW      WM15631  11.191   1.280  12.937 -0.4334  0.4095 -0.2866
 3566PW       W15632  10.695   8.935  10.637  0.2138  0.1498 -0.0478
 3566PW      WP15633  10.607   9.011  10.558 -0.4499 -0.2815  0.2329
 3566PW      WM15634  10.782   8.889  10.537  0.0604 -0.0062 -0.1131
 3567PW       W15635   8.776   2.847  11.203 -0.8188 -0.2050 -0.1873
 3567PW      WP15636   8.746   2.820  11.069  0.1371 -0.2459 -0.4304
 3567PW      WM15637   8.760   2.744  11.297 -0.3799  0.1467  0.3038
 3568PW       W15638  11.981   0.896  12.009  0.1331  0.0287 -0.1628
 3568PW      WP15639  12.009   0.910  12.145 -0.4439 -0.0681 -0.0228
 3568PW      WM15640  12.115   0.933  11.999 -0.0303  0.7932  0.1684
 3569PW       W15641   4.800   1.122   9.576  0.1684 -0.2094  0.0800
 3569PW      WP15642   4.671   1.070   9.565  0.1740 -0.1325 -0.5338
 3569PW      WM15643   4.914   1.082   9.505  0.4582 -0.5662  0.7026
 3570PW       W15644   4.795   8.509   8.366  0.4340 -0.5235  0.0127
 3570PW      WP15645   4.892   8.605   8.399  0.0417 -0.1934  0.2578
 3570PW      WM15646   4.743   8.625   8.309 -0.1731 -0.6680  0.2360
 3571PW       W15647   4.111   9.096  13.254  0.2622 -0.3789  0.3827
 3571PW      WP15648   4.248   9.106  13.278  0.3340 -0.0227 -0.0956
 3571PW      WM15649   4.215   9.181  13.291  0.1529 -0.3237  0.5712
 3572PW       W15650  11.276   8.057  11.713 -0.3573 -0.2483  0.2395
 3572PW      WP15651  11.376   8.074  11.617 -0.6223  0.3445  0.0415
 3572PW      WM15652  11.403   8.052  11.772  0.0067 -0.0736 -0.4669
 3573PW       W15653   9.048  10.429  12.057  0.5888 -0.0040 -0.3164
 3573PW      WP15654   8.986  10.550  12.025  0.0108 -0.1976 -0.0157
 3573PW      WM15655   9.159  10.513  12.058  0.6060 -0.0274 -0.2059
 3574PW       W15656   8.822   5.647  10.984  0.2136 -0.2461  0.0971
 3574PW      WP15657   8.923   5.724  10.927  0.2701 -0.3011  0.1224
 3574PW      WM15658   8.765   5.530  10.932 -0.3231  0.1167 -0.1796
 3575PW       W15659   0.598   4.353  13.314  0.3677 -0.1873 -0.0662
 3575PW      WP15660   0.634   4.286  13.196  0.0762 -0.3201 -0.0864
 3575PW      WM15661   0.643   4.445  13.409 -0.5923  0.1409  0.1348
 3576PW       W15662  10.238   0.730   8.331 -0.0025  0.1389 -0.1653
 3576PW      WP15663  10.317   0.616   8.353 -0.2162 -0.0994 -0.5705
 3576PW      WM15664  10.240   0.699   8.468 -0.0714 -0.3464 -0.2673
 3577PW       W15665  10.021   0.994   1.153 -0.1101  0.0145 -0.1498
 3577PW      WP15666  10.097   0.943   1.048  0.4172  0.1631  0.1423
 3577PW      WM15667  10.024   1.133   1.140  0.2990  0.0621  0.3052
 3578PW       W15668   2.936   9.365  12.983 -0.1829  0.0251  0.3089
 3578PW      WP15669   3.015   9.442  12.897  0.3150 -0.3229  0.4307
 3578PW      WM15670   2.895   9.246  12.922  0.8456 -0.0736 -0.3130
 3579PW       W15671   8.158   9.472   8.267  0.0582 -0.2332 -0.2589
 3579PW      WP15672   8.032   9.440   8.215  0.1464 -0.7916 -0.1613
 3579PW      WM15673   8.239   9.469   8.153  0.3293 -0.2442 -0.0709
 3580PW       W15674   4.795   4.569   2.068 -0.3013  0.1925  0.0044
 3580PW      WP15675   4.792   4.689   2.140  0.1657  0.0866  0.2219
 3580PW      WM15676   4.712   4.482   1.995 -0.1334  0.5144 -0.5975
 3581PW       W15677   3.331  11.652   3.694  0.1405 -0.0795 -0.0134
 3581PW      WP15678   3.397  11.711   3.803 -0.1738  0.1590  0.0558
 3581PW      WM15679   3.424  11.644   3.590 -0.2116 -0.5514 -0.3147
 3582PW       W15680   0.864   0.849   0.972 -0.4389  0.4261 -0.1960
 3582PW      WP15681   0.797   0.805   1.086  0.2631  0.0714  0.1119
 3582PW      WM15682   0.862   0.820   1.109  0.4939  0.3561 -0.1661
 3583PW       W15683   2.926  11.578  13.152 -0.1594 -0.2147  0.2471
 3583PW      WP15684   2.874  11.499  13.256 -0.0142 -0.2982  0.2574
 3583PW      WM15685   2.942  11.717  13.167  0.7426 -0.2919  0.2961
 3584PW       W15686   6.086   4.602   3.656  0.0321 -0.1664 -0.2115
 3584PW      WP15687   5.994   4.570   3.555 -0.1657  0.1599 -0.1399
 3584PW      WM15688   6.205   4.619   3.584  0.1054 -0.0395 -0.0631
 3585PW       W15689   5.063   2.669  13.313 -0.2492 -0.4257  0.0988
 3585PW      WP15690   5.161   2.765  13.284 -0.4535 -0.2881 -0.1634
 3585PW      WM15691   4.928   2.638  13.330 -0.2888 -0.1285  0.3783
 3586PW       W15692   8.259   3.039  12.924 -0.3115  0.3209 -0.3203
 3586PW      WP15693   8.301   3.126  13.025 -0.3018  0.2074 -0.2253
 3586PW      WM15694   8.194   2.974  13.029 -0.6210  0.2500 -0.5488
 3587PW       W15695   6.060   7.303   9.001 -0.2592 -0.2183 -0.2922
 3587PW      WP15696   5.991   7.296   8.879 -0.3432 -0.1443 -0.2497
 3587PW      WM15697   5.933   7.356   9.028 -0.0720  0.0514  0.1043
 3588PW       W15698   9.686   7.445   5.397  0.0154 -0.3868 -0.1548
 3588PW      WP15699   9.737   7.571   5.362  0.1239 -0.3426  0.1444
 3588PW      WM15700   9.635   7.410   5.272 -0.3572 -0.1208 -0.0834
 3589PW       W15701  11.146   8.139  12.680 -0.2356  0.0984  0.4287
 3589PW      WP15702  11.028   8.075  12.720 -0.2553 -0.3678 -0.2715
 3589PW      WM15703  11.172   8.148  12.817 -0.3248  0.2756  0.4345
 3590PW       W15704   2.394   1.117  10.645  0.1010 -0.3694 -0.1096
 3590PW      WP15705   2.405   1.205  10.537  0.5460 -0.0807  0.1560
 3590PW      WM15706   2.478   1.133  10.533 -0.1469  0.5298 -0.2031
 3591PW       W15707   2.335   2.074   8.802 -0.0834 -0.2768 -0.2591
 3591PW      WP15708   2.205   2.040   8.762 -0.4095 -0.0252  0.4792
 3591PW      WM15709   2.463   2.086   8.748  0.3264  0.5283  0.7241
 3592PW       W15710   4.871   6.296   0.464 -0.0833  0.2583 -0.4641
 3592PW      WP15711   4.831   6.332   0.594 -0.2906 -0.0388 -0.4399
 3592PW      WM15712   4.952   6.189   0.426  0.3948  0.3658  0.1654
 3593PW       W15713   0.847   6.074  13.039 -0.0603  0.1122 -0.0440
 3593PW      WP15714   0.779   6.081  13.161  0.4286  0.6836  0.2243
 3593PW      WM15715   0.762   6.166  12.978 -0.0319  0.2578  0.1304
 3594PW       W15716   0.050   6.504   3.471 -0.4602 -0.0642  0.0862
 3594PW      WP15717   0.107   6.413   3.381 -0.2305  0.0926  0.0679
 3594PW      WM15718   0.063   6.557   3.600 -0.2473 -0.4046  0.2114
 3595PW       W15719   4.022   5.142   9.665 -0.0660 -0.2066 -0.3989
 3595PW      WP15720   4.140   5.217   9.658 -0.0159 -0.1503  0.4857
 3595PW      WM15721   3.896   5.178   9.714  0.0219  0.0187 -0.3329
 3596PW       W15722   7.008   2.198   1.474 -0.1148  0.5406  0.0346
 3596PW      WP15723   6.904   2.104   1.470  0.1396  0.1730  0.9143
 3596PW      WM15724   7.128   2.263   1.507  0.3568 -0.1217 -0.2396
 3597PW       W15725   5.111   2.350  10.069 -0.5127  0.0951 -0.0828
 3597PW      WP15726   5.153   2.468  10.007 -0.0825 -0.0328 -0.0505
 3597PW      WM15727   5.242   2.312  10.102 -0.4795  0.2957  0.0208
 3598PW       W15728   9.642  10.506  12.673  0.4192  0.1475 -0.1619
 3598PW      WP15729   9.668  10.545  12.541  0.6811  0.5266 -0.0048
 3598PW      WM15730   9.656  10.369  12.646  0.2826  0.1473 -0.2402
 3599PW       W15731   8.906   4.681  13.211 -0.5856  0.0397  0.0558
 3599PW      WP15732   8.802   4.698  13.303 -0.4752 -0.4728  0.2941
 3599PW      WM15733   8.881   4.658  13.076 -0.2446 -0.6411  0.0894
 3600PW       W15734   3.805   8.414  12.363 -0.0781  0.1199  0.1311
 3600PW      WP15735   3.744   8.500  12.271 -0.1318  0.1927  0.2341
 3600PW      WM15736   3.703   8.319  12.346  0.3024 -0.3361  0.2725
 3601PW       W15737   8.224   6.236   4.417 -0.0612 -0.2271  0.4827
 3601PW      WP15738   8.269   6.275   4.544  0.3755 -0.5174  0.4250
 3601PW      WM15739   8.202   6.113   4.354 -0.3894  0.0134  0.1028
 3602PW       W15740   8.356   9.041  12.188  0.3228  0.0425 -0.1009
 3602PW      WP15741   8.429   9.146  12.129  0.4189  0.2459  0.3555
 3602PW      WM15742   8.317   8.942  12.098  0.3657  0.1742 -0.2683
 3603PW       W15743   1.285   0.217   2.043  0.3261  0.0143  0.1255
 3603PW      WP15744   1.236   0.235   2.173 -0.1171 -0.5340  0.0566
 3603PW      WM15745   1.399   0.224   2.124  0.2397  0.0460  0.2454
 3604PW       W15746   8.639   5.968   9.821  0.2192  0.1840 -0.0703
 3604PW      WP15747   8.571   6.035   9.923  0.3538 -0.1428  0.2458
 3604PW      WM15748   8.570   6.045   9.726  0.5357 -0.0232 -0.4854
 3605PW       W15749   1.657   4.459   0.459  0.0485 -0.0775 -0.2444
 3605PW      WP15750   1.590   4.481   0.338 -0.3415  0.0230 -0.0190
 3605PW      WM15751   1.754   4.560   0.459  0.3417 -0.3470 -0.4496
 3606PW       W15752   3.961   9.734   0.942  0.1508 -0.1972  0.0157
 3606PW      WP15753   3.876   9.624   0.932 -0.2509  0.1197 -0.2028
 3606PW      WM15754   3.977   9.850   1.020  0.1786 -0.3109  0.1804
 3607PW       W15755   7.438   0.183   4.181 -0.1704  0.4043  0.1760
 3607PW      WP15756   7.566   0.127   4.167 -0.1689  0.4654 -0.0776
 3607PW      WM15757   7.448   0.320   4.156 -0.0716  0.3798  0.0747
 3608PW       W15758  11.478   9.128   2.907 -0.2830  0.3544  0.2535
 3608PW      WP15759  11.343   9.097   2.887 -0.0399 -0.5377 -0.3408
 3608PW      WM15760  11.591   9.085   2.977 -0.4429  0.1538  0.3927
 3609PW       W15761   7.622  11.264  13.298 -0.1487 -0.1493 -0.0031
 3609PW      WP15762   7.711  11.318  13.392  0.0927 -0.1726 -0.2132
 3609PW      WM15763   7.621  11.227  13.163 -0.3389 -0.2707  0.0289
 3610PW       W15764   5.128   0.223  11.286  0.0147  0.3789 -0.3131
 3610PW      WP15765   5.133   0.095  11.228 -0.1892  0.1515  0.1421
 3610PW      WM15766   5.222   0.249  11.387 -0.2703 -0.2746  0.1605
 3611PW       W15767  10.667  10.582  11.553  0.2527 -0.4228 -0.2393
 3611PW      WP15768  10.550  10.560  11.479  0.0185  0.2336 -0.1040
 3611PW      WM15769  10.655  10.443  11.542 -0.0502 -0.4221  0.0134
 3612PW       W15770   8.146   0.038   3.817 -0.2640  0.0094 -0.0596
 3612PW      WP15771   8.079   0.061   3.697 -0.0416 -0.3453 -0.2600
 3612PW      WM15772   8.271  -0.008   3.861 -0.2859 -0.0615 -0.0713
 3613PW       W15773   5.884   9.116   5.643  0.1683 -0.0116  0.5824
 3613PW      WP15774   5.870   9.216   5.546  0.2230 -0.2477  0.3242
 3613PW      WM15775   5.781   9.043   5.704 -0.5330  0.3325 -0.0938
 3614PW       W15776   9.821   9.476   2.259 -0.1705  0.1585  0.0805
 3614PW      WP15777   9.861   9.343   2.272 -0.0788  0.1559 -0.1907
 3614PW      WM15778   9.825   9.604   2.201 -0.0973  0.0707 -0.1133
 3615PW       W15779   9.687   6.347   0.364  0.1568  0.1387  0.1730
 3615PW      WP15780   9.648   6.481   0.355 -0.0838  0.0441 -0.4501
 3615PW      WM15781   9.596   6.331   0.470 -0.0664 -0.3069 -0.0709
 3616PW       W15782  11.932  11.331   4.858 -0.5815 -0.6041  0.8105
 3616PW      WP15783  11.974  11.326   4.991  0.5805  0.0683  0.5436
 3616PW      WM15784  11.820  11.414   4.868  0.0461  0.3829  0.4458
 3617PW       W15785   1.035   7.766   3.564  0.1330 -0.0373 -0.2383
 3617PW      WP15786   1.060   7.664   3.472 -0.0794 -0.1413 -0.1846
 3617PW      WM15787   1.011   7.711   3.691 -0.2595  0.3622 -0.1252
 3618PW       W15788   6.742  11.173  10.805  0.0226 -0.2188 -0.0446
 3618PW      WP15789   6.619  11.121  10.848  0.0786 -0.1448  0.2167
 3618PW      WM15790   6.825  11.198  10.916 -0.1552  0.0298  0.0350
 3619PW       W15791  11.515   3.421  10.081  0.3919 -0.1779  0.1142
 3619PW      WP15792  11.386   3.442  10.131  0.1684 -0.5159 -0.2874
 3619PW      WM15793  11.504   3.465   9.949  0.1353  0.1964  0.2526
 3620PW       W15794  12.014   9.617  12.551  0.2103 -0.2065  0.1157
 3620PW      WP15795  11.988   9.536  12.663 -0.0957  0.3334  0.4569
 3620PW      WM15796  12.129   9.593  12.475  0.2218 -0.4423  0.2014
 3621PW       W15797   1.543   5.119   3.116  0.0876  0.1994 -0.0686
 3621PW      WP15798   1.581   5.164   3.243  0.1523 -0.1156  0.0270
 3621PW      WM15799   1.640   5.200   3.177  0.1392 -0.1801  0.3743
 3622PW       W15800   6.932  11.785  11.898 -0.4155 -0.4117 -0.1375
 3622PW      WP15801   6.863  11.718  11.796 -0.2557 -0.5621 -0.1496
 3622PW      WM15802   7.007  11.678  11.947  0.4964  0.4001  0.4419
 3623PW       W15803   2.973   2.374   2.518 -0.0004  0.1183  0.0946
 3623PW      WP15804   2.910   2.481   2.584  0.0102  0.2673 -0.1309
 3623PW      WM15805   2.921   2.283   2.426 -0.5834  0.0476  0.4711
 3624PW       W15806   1.577   3.734   2.465  0.1902  0.0970 -0.4607
 3624PW      WP15807   1.683   3.645   2.486 -0.1177 -0.1565  0.1318
 3624PW      WM15808   1.649   3.811   2.373 -0.0843  0.2555 -0.5484
 3625PW       W15809   5.891   2.766   2.120 -0.1148 -0.1776  0.1631
 3625PW      WP15810   6.012   2.835   2.131 -0.1528 -0.0240 -0.2733
 3625PW      WM15811   5.959   2.645   2.126 -0.5896 -0.4430  0.5772
 3626PW       W15812   3.672  11.903   3.346  0.1419  0.0870 -0.2156
 3626PW      WP15813   3.607  11.955   3.458  0.3960 -0.1999  0.0792
 3626PW      WM15814   3.689  12.040   3.367  0.0657  0.1769 -0.6988
 3627PW       W15815   1.030   5.641   0.389  0.2988  0.1677  0.4731
 3627PW      WP15816   0.908   5.674   0.449  0.1947  0.3979  0.1495
 3627PW      WM15817   1.055   5.530   0.307 -0.4045  0.2584  0.0969
 3628PW       W15818   1.068   6.566  10.451  0.2193  0.0264 -0.2895
 3628PW      WP15819   1.076   6.621  10.580 -0.0105 -0.0478 -0.2416
 3628PW      WM15820   1.022   6.442  10.496 -0.4645  0.2688 -0.2619
 3629PW       W15821   7.086   5.827   4.385  0.5827  0.2773 -0.0601
 3629PW      WP15822   7.149   5.824   4.510  0.0037 -0.1028  0.2450
 3629PW      WM15823   7.086   5.698   4.331 -0.2235  0.2399 -0.0343
 3630PW       W15824   3.503   3.210   5.566  0.1771  0.2144 -0.1972
 3630PW      WP15825   3.575   3.328   5.587  0.2605  0.1132  0.1265
 3630PW      WM15826   3.501   3.182   5.429 -0.2779  0.3192 -0.2198
 3631PW       W15827   7.519   2.117   9.193 -0.2875  0.2718  0.3770
 3631PW      WP15828   7.541   2.142   9.057  0.0921  0.0041  0.3794
 3631PW      WM15829   7.421   2.019   9.215 -0.1510 -0.0180 -0.1973
 3632PW       W15830  10.832   2.692   1.467  0.2738  0.0476  0.0890
 3632PW      WP15831  10.752   2.632   1.369  0.1047  0.0645  0.2149
 3632PW      WM15832  10.940   2.773   1.504  0.3790 -0.0969  0.1039
 3633PW       W15833   5.812   9.684   2.852 -0.0693  0.2998  0.0125
 3633PW      WP15834   5.942   9.654   2.809  0.0899  0.0790  0.6049
 3633PW      WM15835   5.843   9.634   2.979  0.4294  0.2181 -0.1302
 3634PW       W15836   8.870   3.326   1.343  0.0977  0.1276 -0.1324
 3634PW      WP15837   8.784   3.228   1.393  0.1447  0.0919 -0.1202
 3634PW      WM15838   9.010   3.324   1.348  0.0898  0.2296  0.2295
 3635PW       W15839  10.265   6.440   9.736 -0.0143  0.1320 -0.2131
 3635PW      WP15840  10.380   6.496   9.794  0.0135  0.0806 -0.2175
 3635PW      WM15841  10.129   6.421   9.713  0.0366 -0.3249 -0.1830
 3636PW       W15842  10.448   8.197   9.496  0.5193 -0.1679  0.1225
 3636PW      WP15843  10.519   8.229   9.379 -0.0790 -0.1179 -0.2465
 3636PW      WM15844  10.441   8.073   9.560 -0.3502  0.0098  0.4343
 3637PW       W15845   5.538   2.821  10.482  0.2443  0.2238  0.1169
 3637PW      WP15846   5.471   2.897  10.580 -0.4727 -0.0644 -0.1140
 3637PW      WM15847   5.674   2.846  10.461  0.2985 -0.0813  0.0775
 3638PW       W15848   2.432   9.307   1.994 -0.0670 -0.2426 -0.4719
 3638PW      WP15849   2.430   9.216   2.101 -0.2591  0.2146 -0.0695
 3638PW      WM15850   2.532   9.404   1.984  0.1325 -0.4038 -0.1201
 3639PW       W15851   2.197   2.878   5.176 -0.3926 -0.1392 -0.6399
 3639PW      WP15852   2.334   2.902   5.184 -0.4246 -0.0571 -0.1488
 3639PW      WM15853   2.069   2.905   5.226 -0.1546  0.1339 -0.1343
 3640PW       W15854  10.872   8.015  10.108  0.1024  0.0082  0.0826
 3640PW      WP15855  10.949   7.925  10.033 -0.2253 -0.1765 -0.0471
 3640PW      WM15856  10.873   7.906  10.195  0.2400 -0.0270  0.0385
 3641PW       W15857   0.048   2.360   1.960 -0.0885 -0.0702  0.0091
 3641PW      WP15858   0.037   2.313   2.092 -0.3769  0.1660  0.0742
 3641PW      WM15859   0.177   2.386   1.911 -0.0514  0.3872  0.3112
 3642PW       W15860  10.881   9.613   0.562  0.0479  0.3940  0.3957
 3642PW      WP15861  10.950   9.662   0.450 -0.6963  0.1531 -0.2146
 3642PW      WM15862  10.759   9.588   0.499  0.0875  0.2894  0.3599
 3643PW       W15863  10.861   9.476   9.320  0.3807 -0.0448  0.3518
 3643PW      WP15864  10.797   9.600   9.329  0.1640 -0.1117 -0.0978
 3643PW      WM15865  10.790   9.381   9.245 -0.0197  0.1236  0.5029
 3644PW       W15866   4.131   0.128  12.263 -0.1074  0.0154  0.3950
 3644PW      WP15867   4.097  -0.007  12.249 -0.1857  0.0357  0.3884
 3644PW      WM15868   4.250   0.184  12.215 -0.2452  0.0039  0.0255
 3645PW       W15869   9.284   2.910  13.217 -0.0918 -0.5520  0.3185
 3645PW      WP15870   9.195   2.911  13.325 -0.2695 -0.3177  0.1743
 3645PW      WM15871   9.177   2.819  13.214 -0.0109 -0.6507 -0.3373
 3646PW       W15872   3.312   5.992  13.250  0.2212 -0.2984 -0.4522
 3646PW      WP15873   3.295   5.866  13.309 -0.5803  0.0741  0.2046
 3646PW      WM15874   3.415   6.027  13.162 -0.0078  0.1334 -0.5620
 3647PW       W15875   4.849  10.032   4.323  0.0615  0.3653  0.2261
 3647PW      WP15876   4.791  10.018   4.196  0.3033  0.6129  0.0836
 3647PW      WM15877   4.965  10.090   4.270  0.2608  0.0292  0.2768
 3648PW       W15878   5.302   6.862   1.684 -0.3202 -0.1406 -0.1251
 3648PW      WP15879   5.319   6.750   1.603 -0.1519 -0.0133 -0.2689
 3648PW      WM15880   5.370   6.748   1.729  0.1373  0.1376 -0.0820
 3649PW       W15881   7.901   2.948   1.752  0.1497 -0.0524  0.2709
 3649PW      WP15882   7.960   2.965   1.626 -0.4440  0.3019  0.0233
 3649PW      WM15883   7.941   3.059   1.677  0.0366 -0.1602  0.0453
 3650PW       W15884   0.032  11.812   4.833 -0.3738 -0.1114  0.3015
 3650PW      WP15885   0.023  11.899   4.723  0.1244  0.0259  0.3537
 3650PW      WM15886  -0.007  11.944   4.858 -0.3917 -0.0431 -0.0602
 3651PW       W15887   9.874   8.959   2.164 -0.3963  0.0375 -0.4328
 3651PW      WP15888  10.009   8.949   2.129 -0.2905  0.2949 -0.1265
 3651PW      WM15889   9.882   9.099   2.160  0.2321  0.0484  0.2665
 3652PW       W15890   6.703   4.515  11.438 -0.1216 -0.0244 -0.1728
 3652PW      WP15891   6.683   4.618  11.346  0.2740  0.3529  0.1405
 3652PW      WM15892   6.736   4.449  11.319 -0.3160  0.2150 -0.3639
 3653PW       W15893   2.067   8.612   2.456  0.1652  0.2479 -0.3202
 3653PW      WP15894   2.171   8.673   2.528 -0.1505 -0.0568  0.4472
 3653PW      WM15895   1.949   8.686   2.439 -0.0810 -0.1282 -0.2885
 3654PW       W15896   2.866   7.367   9.401 -0.0475 -0.1685  0.2627
 3654PW      WP15897   2.772   7.457   9.453  0.5536  0.6971 -0.0232
 3654PW      WM15898   2.963   7.331   9.496 -0.0837 -0.3511  0.2326
 3655PW       W15899   9.040   3.681   0.907 -0.3052 -0.0990 -0.0534
 3655PW      WP15900   9.055   3.569   0.824 -0.1977  0.1376 -0.3685
 3655PW      WM15901   9.145   3.722   0.991 -0.0369  0.0850 -0.4577
 3656PW       W15902   1.398   2.184   4.531  0.0307  0.3190  0.0864
 3656PW      WP15903   1.492   2.175   4.428 -0.1189  0.1045 -0.0341
 3656PW      WM15904   1.433   2.179   4.667 -0.2599  0.6860  0.1827
 3657PW       W15905  12.004  11.526   9.486  0.0291  0.1077 -0.3167
 3657PW      WP15906  11.877  11.524   9.544  0.3543 -0.1005  0.4523
 3657PW      WM15907  12.034  11.437   9.589  0.0237  0.2208 -0.2163
 3658PW       W15908  11.271   0.907   2.988 -0.1652  0.3341  0.2649
 3658PW      WP15909  11.229   0.810   2.897  0.2077 -0.0683  0.4973
 3658PW      WM15910  11.286   0.787   3.059 -0.2352  0.1367 -0.0486
 3659PW       W15911   4.914   7.208   3.919  0.1972 -0.2979  0.0943
 3659PW      WP15912   4.827   7.199   3.809  0.1912  0.2590  0.0423
 3659PW      WM15913   4.990   7.177   4.032  0.1463 -0.0839  0.1887
 3660PW       W15914   0.084   7.682   0.040 -0.0649 -0.0434 -0.0770
 3660PW      WP15915   0.072   7.761   0.155  0.2484 -0.4118  0.2210
 3660PW      WM15916   0.102   7.600  -0.072 -0.2022 -0.1913  0.0093
 3661PW       W15917   5.188   7.706  13.104  0.1409 -0.2363 -0.2730
 3661PW      WP15918   5.262   7.793  13.024 -0.1003 -0.0133 -0.2582
 3661PW      WM15919   5.281   7.802  13.144 -0.2227 -0.1912  0.5666
 3662PW       W15920   8.966  11.791  13.244 -0.1267 -0.0183 -0.1187
 3662PW      WP15921   8.933  11.918  13.195  0.1101  0.0384 -0.1405
 3662PW      WM15922   9.050  11.834  13.348  0.3345 -0.5433 -0.2493
 3663PW       W15923  10.001   0.636   0.832 -0.5040  0.2255  0.4063
 3663PW      WP15924   9.969   0.506   0.791  0.4105  0.0000  0.2841
 3663PW      WM15925  10.003   0.578   0.960 -0.7006 -0.2292  0.2156
 3664PW       W15926   8.433   2.179  12.897  0.1874  0.1292  0.4909
 3664PW      WP15927   8.538   2.230  12.819 -0.1852 -0.0310 -0.1526
 3664PW      WM15928   8.442   2.073  12.806  0.2871  0.2768  0.3275
 3665PW       W15929   1.644  11.267  12.396 -0.3283  0.6084 -0.0759
 3665PW      WP15930   1.640  11.142  12.459  0.0708  0.1034 -0.9612
 3665PW      WM15931   1.706  11.378  12.337 -0.1010  0.4017 -0.2356
 3666PW       W15932   1.275   6.031  10.934 -0.4967 -0.0606 -0.0049
 3666PW      WP15933   1.260   5.984  10.803 -0.1917  0.4255 -0.2278
 3666PW      WM15934   1.311   5.997  11.065  0.4225 -0.0993 -0.2408
 3667PW       W15935   1.791   0.644  11.301 -0.3350 -0.1048 -0.0813
 3667PW      WP15936   1.661   0.681  11.262 -0.5386 -0.3055  0.3670
 3667PW      WM15937   1.816   0.608  11.434  0.0188  0.0817 -0.0939
 3668PW       W15938   6.777  11.606   1.903 -0.8292 -0.3832 -0.1506
 3668PW      WP15939   6.788  11.675   2.024  0.2541  0.0576 -0.4434
 3668PW      WM15940   6.740  11.659   1.778  0.3632  0.1068 -0.3642
 3669PW       W15941   2.024   6.721  11.361 -0.2494  0.7047  0.0833
 3669PW      WP15942   2.162   6.745  11.350 -0.1016 -0.1136 -0.1958
 3669PW      WM15943   1.934   6.722  11.253  0.2878 -0.0966 -0.4316
 3670PW       W15944   1.151  11.587  10.737 -0.4229 -0.1420 -0.1109
 3670PW      WP15945   1.272  11.523  10.709 -0.3022  0.0764 -0.1051
 3670PW      WM15946   1.115  11.711  10.791 -0.2623  0.0069 -0.3385
 3671PW       W15947   9.212   2.535   1.028  0.0050 -0.2788  0.0163
 3671PW      WP15948   9.183   2.398   1.021 -0.1545 -0.2312 -0.4065
 3671PW      WM15949   9.077   2.532   0.991  0.0039  0.3440 -0.0805
 3672PW       W15950   0.219   0.514   0.622 -0.1968  0.2002  0.0362
 3672PW      WP15951   0.151   0.630   0.585 -0.1417  0.2911  0.2133
 3672PW      WM15952   0.234   0.420   0.725  0.6946  0.2413 -0.0205
 3673PW       W15953  10.654   1.441   9.723  0.7964 -0.5306 -0.3132
 3673PW      WP15954  10.608   1.361   9.618 -0.3174 -0.3285 -0.0555
 3673PW      WM15955  10.773   1.471   9.789  0.3434 -0.1379  0.3987
 3674PW       W15956   5.109   0.314   9.705 -0.3896  0.5067  0.4349
 3674PW      WP15957   5.121   0.450   9.676 -0.1656  0.4356  0.1812
 3674PW      WM15958   5.160   0.330   9.834  0.1821  0.2455  0.2565
 3675PW       W15959   2.389   5.946   3.364 -0.0937 -0.0756 -0.5748
 3675PW      WP15960   2.430   5.834   3.437 -0.0274  0.6793  0.6940
 3675PW      WM15961   2.375   6.086   3.365 -0.0947 -0.0645  0.1415
 3676PW       W15962   5.623   0.185  11.489 -0.3237 -0.3654 -0.5212
 3676PW      WP15963   5.546   0.231  11.381  0.0784  0.3208 -0.5483
 3676PW      WM15964   5.739   0.179  11.410 -0.1336 -0.2704 -0.2551
 3677PW       W15965   9.300   1.540   2.971  0.3572  0.0580  0.1282
 3677PW      WP15966   9.166   1.555   3.007  0.3183 -0.2899  0.1400
 3677PW      WM15967   9.347   1.583   3.096 -0.3471  0.4739  0.2792
 3678PW       W15968   8.078   6.583   1.001  0.2162 -0.2152 -0.1292
 3678PW      WP15969   8.094   6.714   0.954  0.0801 -0.0541  0.2550
 3678PW      WM15970   8.184   6.504   0.957  0.3844 -0.3329  0.4580
 3679PW       W15971   9.897   7.969   3.892 -0.3260  0.1828 -0.0131
 3679PW      WP15972   9.992   7.925   3.799  0.0420  0.6603  0.1203
 3679PW      WM15973   9.999   7.930   3.980 -0.3301  0.0922 -0.0470
 3680PW       W15974   4.665   2.433  10.323 -0.0854 -0.1658  0.3481
 3680PW      WP15975   4.649   2.572  10.329  0.0741 -0.1517  0.5046
 3680PW      WM15976   4.613   2.430  10.193 -0.2297 -0.1667  0.4055
 3681PW       W15977   9.819  11.300   4.177  0.2297 -0.3059  0.1507
 3681PW      WP15978   9.699  11.236   4.211  0.2336 -0.2153  0.3367
 3681PW      WM15979   9.822  11.364   4.301  0.1405 -0.0430  0.0211
 3682PW       W15980   0.614   4.954   3.256 -0.0776  0.0462 -0.1256
 3682PW      WP15981   0.589   4.987   3.123  0.2133 -0.3255 -0.2810
 3682PW      WM15982   0.701   4.867   3.323 -0.1833 -0.0148 -0.0674
 3683PW       W15983   8.600  10.656   0.471  0.1102  0.6405 -0.0199
 3683PW      WP15984   8.728  10.646   0.413  0.1596  0.0085  0.1594
 3683PW      WM15985   8.517  10.634   0.361  0.0580  0.2110  0.0985
 3684PW       W15986   8.724   9.890   4.530 -0.2149  0.0545 -0.0523
 3684PW      WP15987   8.687   9.976   4.426  0.7556  0.0860 -0.4237
 3684PW      WM15988   8.861   9.906   4.507 -0.2508 -0.2326 -0.5594
 3685PW       W15989  10.774   4.298   1.238  0.3358 -0.4315  0.1243
 3685PW      WP15990  10.650   4.248   1.279  0.1480 -0.2615 -0.2161
 3685PW      WM15991  10.866   4.261   1.336  0.2357 -0.3109  0.2661
 3686PW       W15992  10.576  10.054   0.598 -0.0961 -0.2828 -0.0865
 3686PW      WP15993  10.687  10.004   0.529 -0.1042 -0.0094 -0.3056
 3686PW      WM15994  10.451  10.070   0.659 -0.2837 -0.3621 -0.4384
 3687PW       W15995   0.544   9.123   0.897 -0.7600  0.1308 -0.1556
 3687PW      WP15996   0.498   9.237   0.830 -0.4750  0.0409 -0.5209
 3687PW      WM15997   0.571   9.029   0.997 -0.1549 -0.0924 -0.5043
 3688PW       W15998   5.636   2.211   5.261  0.0447 -0.4374 -0.1938
 3688PW      WP15999   5.742   2.292   5.220 -0.2862  0.0325 -0.1616
 3688PW      WM16000   5.582   2.279   5.151  0.1793 -0.1519 -0.0867
 3689PW       W16001   5.589   3.682   2.348 -0.0008 -0.1871 -0.1315
 3689PW      WP16002   5.569   3.799   2.273 -0.2801 -0.2207 -0.1148
 3689PW      WM16003   5.723   3.715   2.321 -0.0760  0.1800 -0.0903
 3690PW       W16004   5.164   1.357   2.651  0.0999  0.1844 -0.3156
 3690PW      WP16005   5.239   1.463   2.702  0.1129 -0.0107  0.0868
 3690PW      WM16006   5.086   1.421   2.747  0.0337  0.1243 -0.3284
 3691PW       W16007   6.705  10.916   9.870 -0.0185  0.0315  0.2650
 3691PW      WP16008   6.572  10.959   9.879  0.0793  0.4344 -0.0685
 3691PW      WM16009   6.839  10.879   9.883 -0.0290 -0.2996 -0.3607
 3692PW       W16010   1.586   8.618   1.872 -0.3651  0.0539 -0.1542
 3692PW      WP16011   1.507   8.732   1.892 -0.3844 -0.0568  0.5282
 3692PW      WM16012   1.703   8.658   1.806 -0.3630  0.0807 -0.1347
 3693PW       W16013   4.465  11.484   1.072  0.1848  0.0071  0.7117
 3693PW      WP16014   4.581  11.545   1.123  0.5680 -0.2192  0.1613
 3693PW      WM16015   4.370  11.582   1.102 -0.1319 -0.1072  0.1464
 3694PW       W16016   0.818   2.414   3.659  0.2048  0.5924 -0.0152
 3694PW      WP16017   0.721   2.422   3.558 -0.1352 -0.0744  0.2283
 3694PW      WM16018   0.896   2.472   3.759  0.0703  0.2843  0.2782
 3695PW       W16019  10.937   1.913  10.448  0.3874  0.0962 -0.0207
 3695PW      WP16020  10.844   1.821  10.498  0.1151  0.0482 -0.5799
 3695PW      WM16021  10.984   2.018  10.368  0.2221 -0.0667 -0.3384
 3696PW       W16022   9.013   6.253   9.975  0.6064  0.1195 -0.6076
 3696PW      WP16023   9.145   6.251  10.021  0.3192 -0.0070  0.3196
 3696PW      WM16024   8.950   6.365  10.030  0.2174 -0.4774  0.2736
 3697PW       W16025   5.588   4.804  13.309 -0.0192 -0.0333 -0.0251
 3697PW      WP16026   5.671   4.908  13.266  0.0759 -0.0453  0.1255
 3697PW      WM16027   5.476   4.879  13.347  0.2418  0.3079  0.0991
 3698PW       W16028  11.540  10.229  10.532  0.0311 -0.1409 -0.1973
 3698PW      WP16029  11.595  10.167  10.644  0.5877  0.2202 -0.2471
 3698PW      WM16030  11.445  10.330  10.554 -0.2066 -0.3939 -0.0387
 3699PW       W16031   2.460   1.715   1.071  0.1987 -0.1401 -0.2365
 3699PW      WP16032   2.515   1.656   0.956  0.3331 -0.0659 -0.2114
 3699PW      WM16033   2.345   1.642   1.102  0.1653 -0.0415 -0.1236
 3700PW       W16034   8.956   1.128   0.316 -0.3085 -0.1253 -0.3116
 3700PW      WP16035   9.026   1.038   0.398 -0.3374  0.1756  0.0554
 3700PW      WM16036   8.842   1.206   0.341 -0.2142 -0.0881  0.0237
 3701PW       W16037   6.829   6.026  10.156 -0.1696 -0.4661 -0.1127
 3701PW      WP16038   6.879   5.910  10.218 -0.1036 -0.0594  0.6549
 3701PW      WM16039   6.699   6.032  10.208  0.0826 -0.0988  0.5327
 3702PW       W16040   3.126   6.550  10.610  0.1606  0.4386  0.3365
 3702PW      WP16041   3.083   6.675  10.655  0.2837  0.6492 -0.1045
 3702PW      WM16042   3.016   6.568  10.525  0.5175 -0.4348 -0.3902
 3703PW       W16043   9.982   9.849   2.839  0.2694  0.1006  0.0460
 3703PW      WP16044   9.963   9.715   2.803 -0.3548  0.1527  0.1269
 3703PW      WM16045  10.051   9.728   2.855 -0.1649 -0.1789 -0.0808
 3704PW       W16046   4.412   2.222   8.837 -0.3066  0.0990 -0.1725
 3704PW      WP16047   4.421   2.111   8.752  0.3745 -0.2913  0.3596
 3704PW      WM16048   4.367   2.309   8.937 -0.3280  0.3977 -0.4338
 3705PW       W16049   4.144   6.187  10.620 -0.2940  0.1153  0.0522
 3705PW      WP16050   4.181   6.286  10.529  0.6518 -0.3858 -0.1705
 3705PW      WM16051   4.012   6.234  10.623 -0.3944 -0.1598  0.0836
 3706PW       W16052   7.414  11.835   1.098  0.1847 -0.1193  0.3780
 3706PW      WP16053   7.474  11.709   1.109  0.1738 -0.2176 -0.3901
 3706PW      WM16054   7.300  11.837   1.179  0.0130  0.1566  0.1382
 3707PW       W16055  11.212   9.829   0.866 -0.0342  0.3763  0.2404
 3707PW      WP16056  11.137   9.724   0.812  0.2436  0.1893  0.2086
 3707PW      WM16057  11.116   9.926   0.834 -0.0839  0.1927 -0.2040
 3708PW       W16058   1.714  11.668  10.681  0.3205  0.3249  0.0566
 3708PW      WP16059   1.697  11.602  10.559  0.4203  0.1765  0.1224
 3708PW      WM16060   1.651  11.793  10.672 -0.2653  0.0512  0.1191
 3709PW       W16061   5.307   5.364   2.952  0.4849  0.4957  0.1600
 3709PW      WP16062   5.301   5.260   3.045  0.4057 -0.0099 -0.3828
 3709PW      WM16063   5.194   5.386   2.873  0.2621 -0.2832  0.2182
 3710PW       W16064   2.947   7.689   2.355  0.0037 -0.6917 -0.1330
 3710PW      WP16065   2.996   7.752   2.240  0.1716  0.2370  0.3931
 3710PW      WM16066   2.836   7.735   2.428  0.1752 -0.5325  0.0353
 3711PW       W16067  11.072   7.341   8.933  0.0810  0.1990  0.3236
 3711PW      WP16068  11.103   7.448   8.848 -0.2539  0.0998  0.0631
 3711PW      WM16069  11.030   7.326   9.066  0.4979 -0.5291  0.3981
 3712PW       W16070  11.271   7.053  11.825 -0.0889  0.2303  0.0475
 3712PW      WP16071  11.318   6.921  11.830 -0.3028  0.1335 -0.3042
 3712PW      WM16072  11.282   7.165  11.908 -0.0718 -0.0211  0.3962
 3713PW       W16073   6.521   7.582   1.006 -0.1184 -0.1278 -0.1266
 3713PW      WP16074   6.593   7.478   0.946 -0.1949 -0.0555 -0.3462
 3713PW      WM16075   6.630   7.665   0.978 -0.2504 -0.0930 -0.5697
 3714PW       W16076   7.592  11.854   9.003 -0.0086  0.0564  0.1288
 3714PW      WP16077   7.487  11.947   9.003  0.0962  0.1755  0.0188
 3714PW      WM16078   7.653  11.873   8.879 -0.1583 -0.0202  0.0424
 3715PW       W16079   5.374  11.448   2.427  0.0674  0.1894 -0.1726
 3715PW      WP16080   5.248  11.508   2.433 -0.2492 -0.4617  0.6057
 3715PW      WM16081   5.407  11.512   2.547  0.3626  0.0251 -0.1617
 3716PW       W16082   6.218   0.266   0.822 -0.1950 -0.0798  0.6361
 3716PW      WP16083   6.193   0.130   0.801  0.0856 -0.0151 -0.4446
 3716PW      WM16084   6.355   0.261   0.793 -0.3024 -0.6326  0.1062
 3717PW       W16085   0.157   5.829   0.851  0.2875  0.2013 -0.0018
 3717PW      WP16086   0.140   5.813   0.713  0.0843  0.0301  0.0410
 3717PW      WM16087   0.237   5.912   0.931  0.2076 -0.0611  0.3652
 3718PW       W16088   9.212   6.153   0.401  0.2331 -0.0092 -0.0015
 3718PW      WP16089   9.258   6.271   0.342  0.0845  0.2155  0.3141
 3718PW      WM16090   9.307   6.067   0.344 -0.0441  0.0362 -0.5697
 3719PW       W16091   9.631  10.250   0.694  0.3162 -0.2888 -0.0754
 3719PW      WP16092   9.664  10.385   0.708 -0.0355 -0.2325  0.2857
 3719PW      WM16093   9.549  10.266   0.581  0.3707  0.6413 -0.0201
 3720PW       W16094   0.913   0.119   3.407 -0.2275  0.2481  0.2074
 3720PW      WP16095   1.034   0.050   3.429 -0.2280  0.0224 -0.4067
 3720PW      WM16096   0.859   0.172   3.525 -0.8248  0.5361 -0.1734
 3721PW       W16097  11.203   9.018   1.729  0.0209 -0.1979 -0.0309
 3721PW      WP16098  11.096   8.968   1.654 -0.3325  0.4007  0.0366
 3721PW      WM16099  11.309   9.058   1.647 -0.1147  0.2217 -0.0120
 3722PW       W16100   1.605   5.204  12.893 -0.0640  0.1304 -0.2454
 3722PW      WP16101   1.587   5.282  12.778 -0.1791 -0.0779 -0.3711
 3722PW      WM16102   1.567   5.269  13.012  0.0552 -0.5592  0.1968
 3723PW       W16103   7.027   5.323   0.537  0.3130 -0.3820  0.0036
 3723PW      WP16104   7.082   5.233   0.445 -0.1201 -0.4466 -0.2053
 3723PW      WM16105   7.134   5.395   0.591  0.0473  0.2489 -0.2561
 3724PW       W16106   8.740   0.086  12.155  0.0269 -0.2231 -0.2798
 3724PW      WP16107   8.757   0.212  12.095 -0.1899 -0.0242  0.0611
 3724PW      WM16108   8.834  -0.007  12.110 -0.2501 -0.3853 -0.5432
 3725PW       W16109   4.493   2.608   9.575  0.2784  0.4043 -0.1709
 3725PW      WP16110   4.583   2.569   9.475  0.2644 -0.0438 -0.0222
 3725PW      WM16111   4.355   2.630   9.571  0.2058  0.1643  0.4749
 3726PW       W16112   3.407   5.385   0.527 -0.3849 -0.1049  0.0957
 3726PW      WP16113   3.499   5.293   0.475  0.3109  0.5068  0.1708
 3726PW      WM16114   3.356   5.305   0.630 -0.8174 -0.2410 -0.2105
 3727PW       W16115   4.337   2.338   1.240 -0.2415 -0.3794  0.2859
 3727PW      WP16116   4.380   2.236   1.326  0.2708 -0.7133 -0.3218
 3727PW      WM16117   4.325   2.478   1.235  0.0275 -0.3574  0.1515
 3728PW       W16118   4.881   3.453  12.384  0.0708  0.4374  0.2791
 3728PW      WP16119   4.831   3.574  12.334 -0.6458  0.0041 -0.1354
 3728PW      WM16120   4.855   3.375  12.497 -0.0064  0.0014 -0.0304
 3729PW       W16121   7.491  10.527   0.767  0.2648 -0.0136 -0.0244
 3729PW      WP16122   7.396  10.609   0.829  0.3231 -0.0787  0.1529
 3729PW      WM16123   7.546  10.575   0.647  0.5711 -0.0184  0.1100
 3730PW       W16124  11.963   3.235  12.563  0.0358 -0.3218  0.0859
 3730PW      WP16125  11.986   3.359  12.624 -0.0887 -0.1263 -0.2440
 3730PW      WM16126  11.908   3.117  12.512  0.1433 -0.1912 -0.3546
 3731PW       W16127   8.515  11.595   9.116 -0.3865 -0.1381 -0.2396
 3731PW      WP16128   8.470  11.496   9.028 -0.3464 -0.3548 -0.0212
 3731PW      WM16129   8.596  11.628   9.007 -0.1355  0.2946  0.0640
 3732PW       W16130   2.302   5.763   4.488 -0.0846  0.1150  0.0196
 3732PW      WP16131   2.170   5.785   4.531 -0.1624  0.4506 -0.3660
 3732PW      WM16132   2.383   5.861   4.431 -0.3903  0.5298  0.2715
 3733PW       W16133  11.970  11.848   5.332 -0.2038  0.3384  0.3390
 3733PW      WP16134  11.857  11.900   5.268  0.3148  0.4168 -0.6042
 3733PW      WM16135  12.091  11.890   5.390 -0.0814 -0.1394  0.4501
 3734PW       W16136   8.510   1.249   4.904 -0.0483 -0.3417 -0.0033
 3734PW      WP16137   8.469   1.383   4.898  0.1311 -0.2896 -0.1194
 3734PW      WM16138   8.490   1.167   4.793 -0.0142 -0.4233  0.0500
 3735PW       W16139   3.650   8.350   4.762 -0.1067 -0.2243  0.1271
 3735PW      WP16140   3.769   8.323   4.832 -0.0743 -0.0326  0.1489
 3735PW      WM16141   3.565   8.256   4.704  0.3742 -0.3916 -0.3546
 3736PW       W16142   2.277   1.409  10.150  0.2789 -0.4608 -0.1134
 3736PW      WP16143   2.294   1.546  10.173 -0.0134 -0.3571 -0.4629
 3736PW      WM16144   2.404   1.352  10.165  0.5867  0.2420  0.1977
 3737PW       W16145   6.990   7.691  12.264  0.1776  0.2698  0.1270
 3737PW      WP16146   6.887   7.783  12.285  0.3997  0.4090  0.6702
 3737PW      WM16147   7.072   7.733  12.158 -0.2908  0.3216 -0.2304
 3738PW       W16148   3.843   0.740   3.981  0.0407  0.2589 -0.1080
 3738PW      WP16149   3.764   0.855   3.968  0.2398  0.4733  0.4276
 3738PW      WM16150   3.778   0.643   3.905 -0.2684 -0.0731  0.5346
 3739PW       W16151   9.492  10.157  12.321  0.0060  0.0472 -0.2142
 3739PW      WP16152   9.626  10.199  12.324  0.0421 -0.0717 -0.1171
 3739PW      WM16153   9.404  10.049  12.333  0.4661 -0.3366 -0.1499
 3740PW       W16154   1.373  10.617   9.205 -0.2377  0.0272 -0.1285
 3740PW      WP16155   1.471  10.715   9.232 -0.2391 -0.1505  0.6482
 3740PW      WM16156   1.474  10.556   9.129 -0.1195  0.3834 -0.2688
 3741PW       W16157   6.564   2.358   0.390 -0.0143  0.3078 -0.1912
 3741PW      WP16158   6.528   2.236   0.331 -0.6131  0.2303  0.2855
 3741PW      WM16159   6.642   2.395   0.500 -0.2532  0.1495  0.0345
 3742PW       W16160   3.411   2.697   5.370  0.2243  0.1541 -0.0052
 3742PW      WP16161   3.482   2.592   5.310  0.2616  0.1593  0.0292
 3742PW      WM16162   3.399   2.800   5.276 -0.3372  0.3820  0.2944
 3743PW       W16163   4.093   1.276   0.133  0.5112  0.0727 -0.4181
 3743PW      WP16164   4.060   1.336   0.255  0.3545  0.1703 -0.5058
 3743PW      WM16165   4.159   1.222   0.244 -0.0314  0.2713  0.0277
 3744PW       W16166   6.101   5.392  10.819 -0.1034  0.3330 -0.0181
 3744PW      WP16167   6.029   5.406  10.699 -0.3779 -0.1808  0.0725
 3744PW      WM16168   6.145   5.338  10.940  0.4596  0.1570 -0.2834
 3745PW       W16169   8.299   3.059   3.614 -0.1133 -0.0195 -0.2258
 3745PW      WP16170   8.190   3.052   3.526 -0.3789 -0.0992  0.0993
 3745PW      WM16171   8.184   3.087   3.689  0.1820  0.2025  0.1642
 3746PW       W16172   9.059   5.203   3.771 -0.4065  0.1725 -0.1353
 3746PW      WP16173   9.046   5.208   3.910 -0.1832 -0.2561 -0.0916
 3746PW      WM16174   9.104   5.303   3.858  0.2335 -0.4331  0.2771
 3747PW       W16175   2.221   5.488   0.818  0.6113  0.1528 -0.0170
 3747PW      WP16176   2.205   5.587   0.720  0.4732  0.4623  0.3072
 3747PW      WM16177   2.278   5.404   0.721  0.1059 -0.6219  0.3120
 3748PW       W16178   9.101   6.542  12.903 -0.1389  0.1957 -0.0302
 3748PW      WP16179   9.042   6.465  13.004 -0.0305  0.0130 -0.1056
 3748PW      WM16180   9.221   6.585  12.962  0.0016 -0.1725 -0.0396
 3749PW       W16181   8.359   7.794   3.994  0.3671 -0.3989 -0.7850
 3749PW      WP16182   8.268   7.809   3.889 -0.2815 -0.1357 -0.2272
 3749PW      WM16183   8.484   7.763   4.049  0.0548  0.1361  0.3890
 3750PW       W16184   0.316   0.384  12.862  0.4830 -0.0986 -0.0264
 3750PW      WP16185   0.271   0.472  12.763 -0.2579 -0.3929  0.0146
 3750PW      WM16186   0.329   0.246  12.882 -0.3239 -0.2676 -0.4273
 3751PW       W16187  11.948   8.457  12.306  0.0434 -0.1108 -0.1053
 3751PW      WP16188  11.880   8.339  12.336 -0.6254  0.3303  0.2193
 3751PW      WM16189  11.938   8.444  12.167 -0.1298  0.2253 -0.1282
 3752PW       W16190   7.255   4.349   1.535  0.2636  0.0971  0.0676
 3752PW      WP16191   7.198   4.228   1.493  0.0780  0.1535  0.1530
 3752PW      WM16192   7.152   4.409   1.608  0.2723  0.2755 -0.0646
 3753PW       W16193   3.494   8.692  10.810  0.2424  0.2524 -0.1986
 3753PW      WP16194   3.576   8.620  10.898  0.0116 -0.1253 -0.2806
 3753PW      WM16195   3.612   8.761  10.842  0.6007 -0.2366 -0.3902
 3754PW       W16196   1.265   9.863   2.259 -0.0465  0.2333 -0.2220
 3754PW      WP16197   1.266   9.803   2.132 -0.2779  0.2491 -0.2343
 3754PW      WM16198   1.286   9.866   2.397 -0.3933  0.0809 -0.1589
 3755PW       W16199   0.087   9.007   0.005  0.0441  0.4691 -0.1876
 3755PW      WP16200   0.199   9.033  -0.075  0.3572 -0.4226 -0.0986
 3755PW      WM16201   0.013   9.105   0.073 -0.4446  0.0588 -0.1003
 3756PW       W16202   8.918   3.269   9.822 -0.0738 -0.5154  0.0563
 3756PW      WP16203   8.833   3.356   9.752 -0.1517 -0.2606  0.4496
 3756PW      WM16204   8.872   3.137   9.831 -0.0393 -0.6085 -0.7543
 3757PW       W16205   9.691   2.172  13.027  0.0324  0.3897  0.2871
 3757PW      WP16206   9.815   2.225  12.990  0.3342 -0.3235  0.1976
 3757PW      WM16207   9.769   2.144  12.914 -0.1085  0.1995  0.2346
 3758PW       W16208   3.553   8.394   0.232 -0.1565  0.0768  0.7507
 3758PW      WP16209   3.440   8.377   0.312 -0.4704  0.7184  0.4816
 3758PW      WM16210   3.666   8.337   0.291  0.3458  0.2715  0.0520
 3759PW       W16211   8.755   4.152   1.040  0.0822  0.0364 -0.2435
 3759PW      WP16212   8.622   4.123   1.073  0.1498  0.1966  0.1972
 3759PW      WM16213   8.848   4.190   0.941  0.0214  0.3270 -0.1926
 3760PW       W16214  11.050   2.951   2.693 -0.0406 -0.2916 -0.0269
 3760PW      WP16215  10.918   2.921   2.655 -0.1254  0.0877 -0.0512
 3760PW      WM16216  11.067   3.079   2.639 -0.1391 -0.5138 -0.6327
 3761PW       W16217   4.397  10.627   2.616  0.1155  0.3029  0.1592
 3761PW      WP16218   4.460  10.545   2.711 -0.5550 -0.1332  0.2556
 3761PW      WM16219   4.313  10.561   2.706  0.0864 -0.0049 -0.0894
 3762PW       W16220  11.967   2.962   5.219  0.1938 -0.0242 -0.1554
 3762PW      WP16221  11.841   2.905   5.236  0.1821  0.0754  0.1226
 3762PW      WM16222  12.029   2.867   5.137  0.5379  0.4033 -0.4120
 3763PW       W16223   2.015   1.355  12.535  0.1978 -0.2752 -0.3814
 3763PW      WP16224   2.138   1.408  12.493  0.2531 -0.5301 -0.5540
 3763PW      WM16225   1.991   1.491  12.558  0.0646 -0.3329 -0.1678
 3764PW       W16226   3.920   8.555   3.335  0.0578 -0.2186  0.0968
 3764PW      WP16227   3.888   8.427   3.383 -0.4162  0.0515  0.5626
 3764PW      WM16228   3.901   8.661   3.425  0.5523 -0.4682  0.5229
 3765PW       W16229   3.196   5.952   4.534  0.6067  0.1648 -0.1542
 3765PW      WP16230   3.159   5.957   4.669 -0.0606  0.2038 -0.3193
 3765PW      WM16231   3.119   6.059   4.488 -0.3231 -0.2668  0.2586
 3766PW       W16232   8.782   5.452   1.486  0.0311 -0.0960 -0.2255
 3766PW      WP16233   8.780   5.552   1.388  0.3997 -0.5424 -0.7188
 3766PW      WM16234   8.812   5.315   1.479  0.0974 -0.0742 -0.3707
 3767PW       W16235   4.828   6.889   0.162  0.1480 -0.1978 -0.0103
 3767PW      WP16236   4.722   6.917   0.249  0.0072 -0.1247 -0.2028
 3767PW      WM16237   4.852   6.872   0.026 -0.0363 -0.2137 -0.0421
 3768PW       W16238   4.605  10.351   2.968  0.1696 -0.0468 -0.1902
 3768PW      WP16239   4.724  10.290   2.928  0.3486  0.0878  0.1156
 3768PW      WM16240   4.535  10.471   2.955 -0.0390 -0.0930  0.3452
 3769PW       W16241   6.892   6.394   5.311  0.0338 -0.0570  0.2356
 3769PW      WP16242   6.924   6.268   5.361 -0.0798  0.0319  0.5385
 3769PW      WM16243   6.789   6.361   5.400 -0.1700  0.1521  0.0853
 3770PW       W16244   1.892   8.930   1.366  0.1920  0.4214  0.0046
 3770PW      WP16245   1.871   8.976   1.496  0.0077  0.2236  0.0465
 3770PW      WM16246   1.976   8.953   1.256  0.2167 -0.0924 -0.0977
 3771PW       W16247   7.729   3.258   1.167  0.1489 -0.0553 -0.0642
 3771PW      WP16248   7.683   3.292   1.039  0.3220  0.0451 -0.1004
 3771PW      WM16249   7.733   3.222   1.302  0.1071  0.0641 -0.0302
 3772PW       W16250   4.150   2.199   4.511 -0.3380  0.0547 -0.0069
 3772PW      WP16251   4.272   2.257   4.549 -0.2058  0.1453 -0.5232
 3772PW      WM16252   4.124   2.086   4.590 -0.4146  0.2282  0.2208
 3773PW       W16253   8.279   3.027   5.379  0.1693 -0.3861  0.2677
 3773PW      WP16254   8.180   2.951   5.442  0.0026 -0.0668  0.4029
 3773PW      WM16255   8.312   2.956   5.263 -0.1895  0.6197 -0.5285
 3774PW       W16256   4.100   4.429  13.042 -0.0861  0.2936 -0.0077
 3774PW      WP16257   4.236   4.403  13.060 -0.0775  0.3449  0.0035
 3774PW      WM16258   4.077   4.505  13.157 -0.7020 -0.3140  0.3090
 3775PW       W16259   0.831   9.805  12.800  0.5651  0.4046 -0.1107
 3775PW      WP16260   0.732   9.821  12.702 -0.1278  0.3826  0.5429
 3775PW      WM16261   0.886   9.693  12.737 -0.0054 -0.1693  0.3486
 3776PW       W16262   5.930   7.615   8.532 -0.2133  0.4288 -0.2985
 3776PW      WP16263   6.003   7.498   8.555  0.0417  0.5447 -0.4807
 3776PW      WM16264   5.834   7.603   8.430  0.1412  0.1950 -0.6200
 3777PW       W16265   6.996   8.655   9.801  0.1320  0.1515 -0.2895
 3777PW      WP16266   7.040   8.524   9.823  0.2301  0.2161 -0.0940
 3777PW      WM16267   7.121   8.680   9.858  0.1860  0.0488 -0.3620
 3778PW       W16268  10.823  10.980  11.829  0.6358 -0.1161  0.1126
 3778PW      WP16269  10.770  10.988  11.699  0.5487  0.2005  0.1643
 3778PW      WM16270  10.910  10.963  11.720  0.2650  0.3152 -0.2722
 3779PW       W16271  10.044   4.089   1.741  0.0643 -0.2116 -0.0604
 3779PW      WP16272  10.032   3.978   1.825  0.2656 -0.0337  0.2131
 3779PW      WM16273  10.110   4.134   1.626 -0.4541  0.1340 -0.2411
 3780PW       W16274   5.301   5.749   9.735  0.0381  0.2657  0.1474
 3780PW      WP16275   5.299   5.687   9.860  0.1714 -0.0184  0.0142
 3780PW      WM16276   5.197   5.667   9.780  0.4053 -0.2974  0.0346
 3781PW       W16277   1.945   5.863   9.293  0.0447  0.3820  0.0890
 3781PW      WP16278   2.064   5.853   9.367  0.0221  0.4560  0.1360
 3781PW      WM16279   1.830   5.890   9.368 -0.2756  0.1758 -0.3123
 3782PW       W16280   3.722   1.302   3.341 -0.3518  0.3640 -0.0903
 3782PW      WP16281   3.679   1.175   3.382 -0.4306  0.4244  0.0185
 3782PW      WM16282   3.639   1.232   3.252  0.0861  0.3812 -0.5281
 3783PW       W16283   0.474   6.006  10.612  0.3624  0.0965 -0.3992
 3783PW      WP16284   0.377   5.905  10.618  0.1663  0.2954 -0.0209
 3783PW      WM16285   0.555   5.978  10.723 -0.3116 -0.3484  0.0192
 3784PW       W16286  11.034  11.176  11.071  0.3134  0.0017  0.3691
 3784PW      WP16287  10.967  11.094  10.979  0.0007  0.0162  0.5786
 3784PW      WM16288  10.988  11.289  11.002 -0.2270 -0.3193  0.1714
 3785PW       W16289   0.835   3.564   3.989 -0.2061 -0.1319 -0.2092
 3785PW      WP16290   0.881   3.525   3.862 -0.2274 -0.2387 -0.1840
 3785PW      WM16291   0.960   3.504   4.007  0.0701  0.3381 -0.4632
 3786PW       W16292  11.068   3.807  12.048 -0.3682  0.2071 -0.2066
 3786PW      WP16293  10.930   3.788  12.040 -0.3305 -0.2662  0.1056
 3786PW      WM16294  11.124   3.935  12.035  0.2820 -0.0610 -0.2761
 3787PW       W16295   5.768  10.637   0.859 -0.0887  0.3661 -0.1125
 3787PW      WP16296   5.867  10.621   0.957 -0.1116 -0.0066 -0.1435
 3787PW      WM16297   5.652  10.635   0.781 -0.1665 -0.1585 -0.0019
 3788PW       W16298   8.745   3.390   0.545  0.2084 -0.1098  0.6588
 3788PW      WP16299   8.803   3.263   0.537  0.4022 -0.0018  0.2089
 3788PW      WM16300   8.785   3.520   0.513  0.1071 -0.1619  0.2999
 3789PW       W16301   2.230  12.127   0.871 -0.2813  0.0867  0.3740
 3789PW      WP16302   2.288  12.035   0.959  0.0137 -0.1335 -0.0333
 3789PW      WM16303   2.110  12.121   0.942 -0.4947  0.3491  0.0484
 3790PW       W16304   4.462   0.275  11.408  0.0889 -0.0275 -0.0030
 3790PW      WP16305   4.368   0.198  11.337  0.0084  0.1587 -0.1020
 3790PW      WM16306   4.502   0.266  11.541 -0.1811  0.0543  0.0876
 3791PW       W16307   7.479   1.746  12.950 -0.6199  0.1094 -0.0063
 3791PW      WP16308   7.470   1.778  12.814 -0.4629 -0.3659 -0.1386
 3791PW      WM16309   7.525   1.718  13.079  0.4071 -0.6195 -0.4628
 3792PW       W16310   5.155  10.604  11.694 -0.3774  0.4617  0.0898
 3792PW      WP16311   5.137  10.674  11.574 -0.5267  0.3996  0.0750
 3792PW      WM16312   5.206  10.474  11.684 -0.0742  0.5642  0.2451
 3793PW       W16313   4.851   4.666  11.478  0.0275  0.1488 -0.2645
 3793PW      WP16314   4.756   4.653  11.581  0.1396  0.2533 -0.1458
 3793PW      WM16315   4.905   4.793  11.454  0.1270  0.2569  0.4075
 3794PW       W16316   2.522  11.964   3.270 -0.5429 -0.3401 -0.1021
 3794PW      WP16317   2.419  12.026   3.342 -0.1272  0.0538  0.1757
 3794PW      WM16318   2.541  11.844   3.200 -0.1399 -0.1782 -0.2851
 3795PW       W16319   2.881  11.874  11.442  0.0357 -0.0822 -0.4181
 3795PW      WP16320   2.760  11.825  11.493  0.1433 -0.1200 -0.1948
 3795PW      WM16321   2.913  12.008  11.419  0.1489  0.0321  0.3121
 3796PW       W16322   5.079   2.709  10.402  0.3860  0.0300 -0.1852
 3796PW      WP16323   5.087   2.848  10.417  0.1048  0.0160  0.1378
 3796PW      WM16324   5.040   2.653  10.524 -0.1261 -0.2911 -0.4780
 3797PW       W16325   2.958  10.246  12.535 -0.1690  0.2607  0.1271
 3797PW      WP16326   3.037  10.158  12.609  0.1360  0.2442 -0.2079
 3797PW      WM16327   2.891  10.273  12.415  0.6581  0.5369 -0.3106
 3798PW       W16328  10.868   0.253   0.448 -0.0141 -0.1539 -0.2441
 3798PW      WP16329  10.961   0.165   0.390  0.1282  0.0146 -0.2751
 3798PW      WM16330  10.885   0.386   0.486  0.1504 -0.2163 -0.0915
 3799PW       W16331   5.393   2.468   1.539  0.4500 -0.0667 -0.0326
 3799PW      WP16332   5.325   2.492   1.419  0.4130 -0.6768 -0.1490
 3799PW      WM16333   5.383   2.606   1.557  0.2304 -0.1315  0.4141
 3800PW       W16334   1.962   2.354   4.466 -0.0273 -0.1244 -0.5165
 3800PW      WP16335   1.936   2.268   4.573  0.6021  0.0997 -0.1563
 3800PW      WM16336   2.099   2.382   4.474  0.0002 -0.3457 -0.0104
 3801PW       W16337   3.719   3.456   4.817 -0.1783  0.4607  0.1194
 3801PW      WP16338   3.722   3.596   4.811 -0.5861  0.4860  0.3360
 3801PW      WM16339   3.780   3.422   4.938  0.1852  0.4567 -0.0561
 3802PW       W16340  10.665   6.743   4.470  0.1292 -0.2230 -0.3088
 3802PW      WP16341  10.746   6.827   4.393  0.1254  0.0567 -0.0163
 3802PW      WM16342  10.684   6.737   4.609 -0.0010  0.3374 -0.2578
 3803PW       W16343   4.487  11.810   4.056  0.4026 -0.1375  0.2860
 3803PW      WP16344   4.434  11.767   3.934  0.1330  0.0680  0.3262
 3803PW      WM16345   4.533  11.688   4.106  0.2588 -0.1582  0.3714
 3804PW       W16346   7.209   8.610   0.929 -0.1141 -0.1806  0.0440
 3804PW      WP16347   7.156   8.618   1.059 -0.0678 -0.5722  0.0922
 3804PW      WM16348   7.252   8.722   1.002  0.1505 -0.2391 -0.0200
 3805PW       W16349  10.436   7.310   9.758 -0.5218 -0.2145  0.5382
 3805PW      WP16350  10.569   7.268   9.767 -0.3009  0.2761 -0.0672
 3805PW      WM16351  10.470   7.337   9.625  0.0303 -0.1143  0.6850
 3806PW       W16352   8.785   7.583  10.215  0.1215 -0.1947  0.0406
 3806PW      WP16353   8.915   7.532  10.227  0.0901 -0.3064 -0.0771
 3806PW      WM16354   8.707   7.616  10.104  0.1207  0.0482  0.1107
 3807PW       W16355   8.092   3.306   2.137 -0.1241 -0.3954 -0.0451
 3807PW      WP16356   8.217   3.242   2.143 -0.0754 -0.2886  0.1429
 3807PW      WM16357   8.094   3.283   2.275 -0.1121 -0.0369  0.0188
 3808PW       W16358   4.694   5.102  10.304 -0.2000 -0.0990  0.0884
 3808PW      WP16359   4.694   5.072  10.440  0.7125 -0.2181  0.0909
 3808PW      WM16360   4.561   5.124  10.265 -0.0679  0.0315 -0.3142
 3809PW       W16361   1.093   0.095   2.469  0.3543 -0.3376 -0.6816
 3809PW      WP16362   0.991   0.046   2.387 -0.0148 -0.1954 -0.3285
 3809PW      WM16363   1.088   0.185   2.362 -0.2726  0.1812 -0.2552
 3810PW       W16364   1.765  11.411   8.969  0.3304  0.5512 -0.3138
 3810PW      WP16365   1.680  11.399   9.080  0.0033  0.2169 -0.5876
 3810PW      WM16366   1.655  11.364   8.895  0.3796 -0.1547  0.0197
 3811PW       W16367   7.841   5.542  10.210  0.1088 -0.5146  0.2600
 3811PW      WP16368   7.805   5.598  10.087  0.3749  0.0977  0.4414
 3811PW      WM16369   7.748   5.597  10.298  0.0749  0.1653 -0.1670
 3812PW       W16370   8.423   4.609  10.468 -0.1800  0.0495 -0.3395
 3812PW      WP16371   8.488   4.586  10.590 -0.1679  0.3845 -0.2781
 3812PW      WM16372   8.317   4.522  10.442 -0.1220 -0.2300  0.2714
 3813PW       W16373   4.069   0.654  12.837 -0.2357 -0.1694 -0.4217
 3813PW      WP16374   4.173   0.704  12.915 -0.6911 -0.0376  0.1333
 3813PW      WM16375   4.019   0.529  12.795  0.0648 -0.4897  0.1181
 3814PW       W16376  10.417   6.838   2.426  0.0411 -0.0506  0.1654
 3814PW      WP16377  10.487   6.813   2.545 -0.3601  0.2900  0.4904
 3814PW      WM16378  10.305   6.913   2.389  0.0176 -0.1560  0.0205
 3815PW       W16379   3.234   1.984   9.792  0.0133 -0.0787  0.2467
 3815PW      WP16380   3.369   1.986   9.828  0.1422  0.2367 -0.2246
 3815PW      WM16381   3.191   2.051   9.908  0.0564  0.0007  0.2169
 3816PW       W16382   9.981   7.273   9.306 -0.2023 -0.1968 -0.3361
 3816PW      WP16383   9.848   7.276   9.349 -0.0883 -0.1436  0.0299
 3816PW      WM16384  10.017   7.308   9.437 -0.3040  0.1610 -0.3988
 3817PW       W16385   2.930   9.632   2.233 -0.1281 -0.1825 -0.2193
 3817PW      WP16386   3.045   9.683   2.172 -0.0803 -0.0684 -0.0350
 3817PW      WM16387   2.937   9.610   2.094  0.2106  0.2530 -0.2814
 3818PW       W16388   8.170   4.153  13.257  0.6253 -0.2450  0.2636
 3818PW      WP16389   8.289   4.217  13.294  0.4644  0.1010  0.2050
 3818PW      WM16390   8.282   4.088  13.205  0.4290 -0.3810  0.0027
 3819PW       W16391  11.460   7.918   4.284 -0.2828  0.3656 -0.4628
 3819PW      WP16392  11.334   7.925   4.224 -0.2775  0.0520 -0.5147
 3819PW      WM16393  11.526   7.858   4.392 -0.2456  0.5438 -0.3843
 3820PW       W16394  10.803   2.507  10.645  0.1534  0.0362  0.1649
 3820PW      WP16395  10.729   2.459  10.536  0.2226  0.4256 -0.0645
 3820PW      WM16396  10.800   2.427  10.760  0.0240  0.2109  0.2851
 3821PW       W16397   3.578   8.515   9.304 -0.0027  0.3316  0.2721
 3821PW      WP16398   3.510   8.442   9.205  0.2548 -0.1749  0.4543
 3821PW      WM16399   3.712   8.495   9.270 -0.1960  0.0283 -0.4290
 3822PW       W16400   7.466   8.775  10.658 -0.1039  0.0215  0.0407
 3822PW      WP16401   7.360   8.686  10.684  0.1322 -0.2686  0.0327
 3822PW      WM16402   7.523   8.901  10.681 -0.6823  0.2763  0.1870
 3823PW       W16403   0.738  10.572   0.776 -0.0198  0.6004 -0.6658
 3823PW      WP16404   0.792  10.637   0.888  0.2673 -0.1715 -0.3136
 3823PW      WM16405   0.814  10.494   0.688  0.0701  0.2388 -0.2861
 3824PW       W16406   4.608   2.531   1.736 -0.1077  0.4240 -0.2692
 3824PW      WP16407   4.552   2.590   1.850  0.1120  0.2825 -0.0846
 3824PW      WM16408   4.728   2.481   1.684 -0.3659  0.0510 -0.5317
 3825PW       W16409   0.347   7.988   9.575  0.4705  0.1106 -0.6213
 3825PW      WP16410   0.264   7.930   9.479 -0.1676 -0.8436  0.3883
 3825PW      WM16411   0.335   8.127   9.556  0.3268  0.2426  0.2097
 3826PW       W16412   5.241   6.255  10.974 -0.1370  0.2539  0.3833
 3826PW      WP16413   5.143   6.158  10.955  0.2312 -0.0075 -0.3676
 3826PW      WM16414   5.281   6.302  10.848 -0.0238 -0.2185  0.2350
 3827PW       W16415   9.457   0.665   1.647  0.1008  0.1071 -0.0582
 3827PW      WP16416   9.397   0.770   1.717  0.2395  0.0212  0.1948
 3827PW      WM16417   9.554   0.766   1.656 -0.0351  0.2067  0.3885
 3828PW       W16418   9.050   5.690   3.548 -0.6235  0.0067  0.6624
 3828PW      WP16419   9.137   5.588   3.586 -0.0324  0.1677 -0.1434
 3828PW      WM16420   9.096   5.640   3.426 -0.6810  0.6348  0.3593
 3829PW       W16421   2.263   8.087  12.086  0.6790 -0.3845 -0.1032
 3829PW      WP16422   2.317   8.170  11.986 -0.1215 -0.3382 -0.5343
 3829PW      WM16423   2.212   7.966  12.039 -0.5946 -0.0879  0.3319
 3830PW       W16424   3.347   2.145   3.946  0.0372 -0.1187  0.5294
 3830PW      WP16425   3.328   2.013   3.992  0.1735 -0.3257  0.0233
 3830PW      WM16426   3.250   2.200   4.031 -0.1793 -0.4286  0.4926
 3831PW       W16427  10.795   0.766   1.190  0.2889 -0.2028  0.2528
 3831PW      WP16428  10.873   0.856   1.116 -0.2551  0.1239  0.0450
 3831PW      WM16429  10.847   0.714   1.309  0.2337  0.3034  0.5084
 3832PW       W16430  11.710   0.879   1.469 -0.2324 -0.2832 -0.0816
 3832PW      WP16431  11.810   0.875   1.567 -0.2183 -0.0324 -0.0846
 3832PW      WM16432  11.684   0.997   1.539 -0.6163 -0.3486 -0.1003
 3833PW       W16433   3.888   2.784   3.404  0.1919 -0.4524 -0.1365
 3833PW      WP16434   3.987   2.851   3.477 -0.1431 -0.1448  0.0528
 3833PW      WM16435   3.863   2.850   3.283 -0.3883  0.2222  0.3068
 3834PW       W16436  11.314   3.445   3.934  0.4584  0.0922 -0.1481
 3834PW      WP16437  11.250   3.495   3.820 -0.3471 -0.7411 -0.1223
 3834PW      WM16438  11.339   3.487   4.066  0.0332 -0.0075 -0.0281
 3835PW       W16439   2.891   2.353   2.044 -0.3247  0.2676 -0.1789
 3835PW      WP16440   3.022   2.319   2.080 -0.2865  0.5432 -0.0480
 3835PW      WM16441   2.824   2.471   2.077 -0.3698  0.2431 -0.1819
 3836PW       W16442   8.514   5.695   0.931 -0.2184  0.1055 -0.2020
 3836PW      WP16443   8.385   5.730   0.974 -0.1421  0.5086 -0.2799
 3836PW      WM16444   8.512   5.562   0.976 -0.1385  0.0009 -0.4954
 3837PW       W16445  10.990   1.503   0.436  0.1493 -0.1331  0.6402
 3837PW      WP16446  11.117   1.560   0.428  0.0676  0.0019 -0.3400
 3837PW      WM16447  10.882   1.574   0.381  0.2511 -0.5343 -0.1509
 3838PW       W16448   9.160   9.060  12.165  0.4593  0.8633 -0.2657
 3838PW      WP16449   9.236   9.005  12.269 -0.7455  0.0634  0.3135
 3838PW      WM16450   9.102   9.176  12.219 -0.5725  0.3184 -0.0637
 3839PW       W16451   1.748   4.078   2.243 -0.2874 -0.2743 -0.3786
 3839PW      WP16452   1.703   3.950   2.276 -0.1028 -0.3421 -0.3824
 3839PW      WM16453   1.879   4.077   2.194  0.1509  0.2863  0.6181
 3840PW       W16454   1.910   0.271   1.276 -0.2765  0.2320 -0.1625
 3840PW      WP16455   1.936   0.365   1.375 -0.6334  0.0109  0.1557
 3840PW      WM16456   1.926   0.141   1.326  0.1024  0.2948 -0.1010
 3841PW       W16457   1.281  10.839   2.513 -0.1049  0.3502  0.1859
 3841PW      WP16458   1.326  10.722   2.451 -0.4228  0.2454  0.1415
 3841PW      WM16459   1.165  10.841   2.434 -0.1312 -0.2273  0.1881
 3842PW       W16460   8.654   4.562   3.525 -0.1918 -0.1241 -0.1966
 3842PW      WP16461   8.536   4.614   3.580 -0.1636 -0.0947 -0.1637
 3842PW      WM16462   8.760   4.475   3.497 -0.1086 -0.1970  0.3084
 3843PW       W16463   1.934   6.600   8.898  0.0776 -0.0158  0.5482
 3843PW      WP16464   1.858   6.691   8.823 -0.0302 -0.3593  0.2301
 3843PW      WM16465   2.066   6.642   8.919  0.1540 -0.0391  0.1522
 3844PW       W16466   1.930   6.246   2.411 -0.4491 -0.0839  0.0514
 3844PW      WP16467   1.988   6.347   2.488  0.1636 -0.2892 -0.1092
 3844PW      WM16468   2.015   6.135   2.410 -0.1522  0.1215 -0.6564
 3845PW       W16469   4.881   7.900  10.258  0.0339  0.1082  0.0052
 3845PW      WP16470   4.763   7.957  10.306  0.0990  0.0518  0.2356
 3845PW      WM16471   5.006   7.868  10.204 -0.1297 -0.5635 -0.0236
 3846PW       W16472   3.106  11.811   4.469  0.1225 -0.0554 -0.1864
 3846PW      WP16473   3.156  11.739   4.578  0.0515  0.1474 -0.0151
 3846PW      WM16474   3.244  11.834   4.456  0.2485 -0.3684  0.3996
 3847PW       W16475   1.560   4.817  11.129 -0.0424 -0.0858 -0.3962
 3847PW      WP16476   1.524   4.682  11.120 -0.0087 -0.1577  0.2690
 3847PW      WM16477   1.567   4.877  11.256  0.3009 -0.5588 -0.1789
 3848PW       W16478   0.948  10.346   3.322  0.2266  0.1047 -0.0698
 3848PW      WP16479   1.004  10.231   3.266 -0.1490 -0.0197 -0.2040
 3848PW      WM16480   0.989  10.480   3.332  0.0189  0.1387  0.5837
 3849PW       W16481   3.688   7.240   4.944 -0.4902 -0.0035 -0.0098
 3849PW      WP16482   3.705   7.202   5.078  0.2961 -0.2952 -0.1691
 3849PW      WM16483   3.616   7.270   4.828 -0.0614  0.4849 -0.1697
 3850PW       W16484   7.383  10.264  10.607 -0.2255 -0.1481  0.6988
 3850PW      WP16485   7.269  10.192  10.571 -0.0921 -0.0348 -0.0208
 3850PW      WM16486   7.510  10.204  10.604 -0.1899 -0.0654  0.2153
 3851PW       W16487   4.202   3.884   0.684 -0.5055  0.1170  0.0830
 3851PW      WP16488   4.267   3.994   0.628 -0.3327 -0.1636 -0.2924
 3851PW      WM16489   4.144   3.995   0.746 -0.5420 -0.0201  0.3051
 3852PW       W16490   3.804   4.659   0.679  0.1161 -0.0309 -0.7342
 3852PW      WP16491   3.709   4.560   0.649 -0.1341  0.2456 -0.8869
 3852PW      WM16492   3.930   4.718   0.683  0.1199  0.0002  0.3450
 3853PW       W16493   2.060   7.651   8.543 -0.3633  0.1256 -0.4983
 3853PW      WP16494   1.932   7.707   8.531 -0.0830  1.0497  0.1892
 3853PW      WM16495   2.072   7.521   8.593 -0.1070  0.3305  0.0102
 3854PW       W16496  12.113   4.079   3.634  0.3391  0.0925 -0.1608
 3854PW      WP16497  12.031   4.105   3.524  0.1928  0.1018 -0.0494
 3854PW      WM16498  12.230   4.137   3.686  0.2167  0.2400 -0.0460
 3855PW       W16499   7.976   0.150   3.360  0.0799  0.1236  0.1658
 3855PW      WP16500   7.917   0.039   3.298  0.1206  0.0553  0.2485
 3855PW      WM16501   8.020   0.178   3.490  0.3825 -0.1032  0.1157
 3856PW       W16502   3.682   2.299   1.864 -0.3618 -0.0754  0.1219
 3856PW      WP16503   3.635   2.314   1.733 -0.5663  0.1136  0.2139
 3856PW      WM16504   3.727   2.174   1.908  0.0081 -0.0749 -0.2188
 3857PW       W16505   1.495   8.900   9.688 -0.0442  0.7263  0.2987
 3857PW      WP16506   1.582   8.921   9.580 -0.0161 -0.2413  0.0927
 3857PW      WM16507   1.372   8.914   9.753 -0.0777  0.2667  0.3450
 3858PW       W16508   5.630   6.221   2.748  0.0583 -0.3251 -0.1052
 3858PW      WP16509   5.509   6.252   2.685  0.0856 -0.9212 -0.4939
 3858PW      WM16510   5.718   6.129   2.690  0.0079 -0.2406 -0.3205
 3859PW       W16511   1.048   3.995   9.704 -0.4036  0.1472  0.3930
 3859PW      WP16512   1.030   4.096   9.799  0.2354  0.5296  0.1361
 3859PW      WM16513   1.161   3.966   9.781 -0.3908  0.1879  0.3897
 3860PW       W16514   0.236  11.615   3.407  0.0544 -0.2674  0.0980
 3860PW      WP16515   0.370  11.576   3.412  0.2108  0.1738 -0.2466
 3860PW      WM16516   0.122  11.641   3.484 -0.2616 -0.4439 -0.2883
 3861PW       W16517   4.717   7.139  10.907  0.0127 -0.1588  0.5846
 3861PW      WP16518   4.623   7.041  10.944 -0.2120 -0.0012  0.4440
 3861PW      WM16519   4.659   7.266  10.896 -0.3575 -0.3660 -0.3529
 3862PW       W16520   5.228   0.147   2.154  0.1082  0.1578  0.2655
 3862PW      WP16521   5.303   0.183   2.267  0.2477 -0.3309  0.3403
 3862PW      WM16522   5.296   0.179   2.036  0.1167  0.1877  0.2788
 3863PW       W16523  10.361   3.638   3.619 -0.3685 -0.0431  0.6400
 3863PW      WP16524  10.497   3.650   3.652 -0.1886 -0.5076  0.1565
 3863PW      WM16525  10.260   3.543   3.596  0.1016 -0.4220 -0.0681
 3864PW       W16526   5.547   3.537  10.628 -0.2496  0.1118  0.1798
 3864PW      WP16527   5.623   3.571  10.516 -0.3451 -0.6411 -0.1468
 3864PW      WM16528   5.517   3.455  10.519  0.3767  0.4833 -0.3092
 3865PW       W16529   6.834   6.625   4.370 -0.1223  0.3640  0.5797
 3865PW      WP16530   6.931   6.654   4.273 -0.2584 -0.3819  0.1834
 3865PW      WM16531   6.798   6.758   4.346 -0.2099  0.1941 -0.4542
 3866PW       W16532   9.879   2.524   8.743  0.0442  0.1642  0.7860
 3866PW      WP16533   9.799   2.590   8.649  0.3824 -0.4592 -0.0048
 3866PW      WM16534   9.754   2.580   8.771 -0.0737  0.3798 -0.0537
 3867PW       W16535   8.703   4.688  10.866  0.6979  0.0565  0.5133
 3867PW      WP16536   8.730   4.807  10.798 -0.0794  0.0083  0.0602
 3867PW      WM16537   8.654   4.654  10.739  0.5255  0.1118  0.5642
 3868PW       W16538   3.591   2.482   0.607 -0.0628  0.1415 -0.0831
 3868PW      WP16539   3.557   2.578   0.703  0.3127 -0.1200  0.3309
 3868PW      WM16540   3.508   2.438   0.710 -0.3047 -0.7715 -0.6162
 3869PW       W16541   1.207   4.202   3.346  0.3234 -0.0183  0.2550
 3869PW      WP16542   1.311   4.291   3.315  0.2750  0.0059  0.1608
 3869PW      WM16543   1.136   4.262   3.241  0.5619  0.0041  0.1024
 3870PW       W16544   5.360   3.232   2.114 -0.1937 -0.2776 -0.1207
 3870PW      WP16545   5.280   3.214   2.227 -0.0795  0.0234  0.0102
 3870PW      WM16546   5.497   3.246   2.138 -0.1265 -0.5725 -0.2965
 3871PW       W16547   6.372   6.439   4.472 -0.1514 -0.2184 -0.0449
 3871PW      WP16548   6.393   6.559   4.542 -0.0638 -0.0475 -0.3516
 3871PW      WM16549   6.499   6.397   4.515 -0.1209  0.0733  0.1636
 3872PW       W16550   7.081  11.949   9.614  0.1294  0.2299  0.0883
 3872PW      WP16551   7.004  11.975   9.499  0.5210  0.1896 -0.1942
 3872PW      WM16552   6.984  11.858   9.572  0.0885  0.1945  0.2598
 3873PW       W16553   2.912  11.120   0.717 -0.0396 -0.3648  0.0132
 3873PW      WP16554   2.990  11.141   0.832  0.0943  0.0356 -0.1433
 3873PW      WM16555   2.963  11.182   0.603  0.1883 -0.2290  0.1842
 3874PW       W16556   4.850   2.835  11.608 -0.2936  0.5394 -0.0801
 3874PW      WP16557   4.758   2.733  11.636  0.0718  0.2066 -0.0548
 3874PW      WM16558   4.960   2.806  11.527 -0.0379 -0.0407  0.4361
 3875PW       W16559   6.629  10.858   7.965  0.1718 -0.5529  0.4786
 3875PW      WP16560   6.725  10.902   8.057  0.5059 -0.1196 -0.0472
 3875PW      WM16561   6.561  10.949   8.047  0.1098 -0.2385  0.0950
 3876PW       W16562   6.531   9.786   1.947  0.1517 -0.1538 -0.4641
 3876PW      WP16563   6.626   9.788   2.049  0.2223  0.0353 -0.5308
 3876PW      WM16564   6.447   9.867   1.870 -0.1690  0.0740  0.0967
 3877PW       W16565   1.297   0.050   8.349  0.2327 -0.5029  0.0501
 3877PW      WP16566   1.208  -0.051   8.309  0.0311 -0.2040 -0.2899
 3877PW      WM16567   1.358   0.116   8.456  0.1187  0.0588 -0.2163
 3878PW       W16568   7.643   9.115  10.317 -0.3025  0.0824  0.2732
 3878PW      WP16569   7.557   9.025  10.254  0.0885 -0.2579  0.1991
 3878PW      WM16570   7.627   9.097  10.455  0.3838 -0.0563  0.3557
 3879PW       W16571  10.854   0.011  11.697 -0.0303  0.0441  0.2439
 3879PW      WP16572  10.861  -0.078  11.589  0.0828  0.4556 -0.1014
 3879PW      WM16573  10.936   0.124  11.712 -0.0572  0.0587  0.2817
 3880PW       W16574   3.933   3.865  11.220 -0.5380  0.0048 -0.0474
 3880PW      WP16575   3.841   3.799  11.138 -0.2702 -0.4523  0.0065
 3880PW      WM16576   3.858   3.925  11.322 -0.2339  0.0181  0.1753
 3881PW       W16577   4.301   2.600   5.006 -0.1350 -0.1213  0.2705
 3881PW      WP16578   4.170   2.603   4.957  0.0582 -0.0199 -0.2683
 3881PW      WM16579   4.402   2.548   4.925 -0.0401  0.0078  0.3053
 3882PW       W16580   8.403   8.026   1.203 -0.0681 -0.2327 -0.1934
 3882PW      WP16581   8.285   8.025   1.279 -0.0114  0.5175 -0.0571
 3882PW      WM16582   8.528   8.033   1.140  0.3900 -0.2391  0.6517
 3883PW       W16583   1.920  10.052   4.457 -0.2221 -0.0074 -0.0713
 3883PW      WP16584   1.968  10.126   4.565  0.2347 -0.3808 -0.0011
 3883PW      WM16585   1.821  10.082   4.362 -0.5633 -0.0869  0.2493
 3884PW       W16586   9.025   5.206   4.700  0.0425  0.1628  0.0452
 3884PW      WP16587   8.989   5.216   4.835 -0.4091  0.7624 -0.1018
 3884PW      WM16588   9.007   5.336   4.746  0.0737  0.0891  0.2744
 3885PW       W16589   4.284   7.933   8.955  0.2225  0.0477 -0.2032
 3885PW      WP16590   4.322   7.818   8.884  0.3912 -0.0080 -0.0293
 3885PW      WM16591   4.289   7.953   8.816  0.1131  0.5271 -0.1470
 3886PW       W16592   2.723   6.446  10.334  0.1510  0.1627 -0.1452
 3886PW      WP16593   2.746   6.505  10.459 -0.0116  0.2373 -0.1493
 3886PW      WM16594   2.729   6.359  10.224  0.3597  0.0305 -0.0334
 3887PW       W16595   7.682  12.075  10.557 -0.1518 -0.1964 -0.4976
 3887PW      WP16596   7.797  12.055  10.634 -0.1795  0.2363 -0.3282
 3887PW      WM16597   7.641  12.198  10.505 -0.1598  0.1743  0.3119
 3888PW       W16598   9.449   6.365  10.037  0.0225  0.2270 -0.3567
 3888PW      WP16599   9.513   6.472  10.100 -0.1732  0.0350  0.1968
 3888PW      WM16600   9.311   6.341  10.029  0.1146 -0.5211 -0.0662
 3889PW       W16601   1.231   5.310   8.621 -0.3416  0.0756 -0.5158
 3889PW      WP16602   1.286   5.186   8.584  0.7223  0.2875  0.1490
 3889PW      WM16603   1.274   5.412   8.705 -0.0800 -0.0815 -0.4538
 3890PW       W16604   2.125   2.205  12.051 -0.3268 -0.2282 -0.3237
 3890PW      WP16605   2.143   2.316  11.966  0.2522  0.0534  0.1323
 3890PW      WM16606   1.996   2.256  12.071 -0.0625  0.3692 -0.0021
 3891PW       W16607   1.055   0.251   0.345  0.0993  0.0537 -0.0964
 3891PW      WP16608   1.047   0.179   0.226  0.0770  0.0216 -0.0753
 3891PW      WM16609   1.091   0.121   0.381 -0.1405 -0.0056 -0.0654
 3892PW       W16610   8.927   7.371   2.499  0.1047 -0.0168 -0.0367
 3892PW      WP16611   8.875   7.495   2.461 -0.0270  0.1101  0.5152
 3892PW      WM16612   9.046   7.443   2.513  0.4708 -0.4932 -0.5084
 3893PW       W16613  10.083   1.052   0.583 -0.2877  0.1358 -0.0904
 3893PW      WP16614  10.183   1.102   0.667 -0.1361  0.0783 -0.2361
 3893PW      WM16615  10.022   1.165   0.639 -0.2476  0.4337 -0.6163
 3894PW       W16616   7.579   6.641   0.947  0.1514  0.1651  0.2891
 3894PW      WP16617   7.591   6.759   0.872 -0.3791  0.0770  0.0420
 3894PW      WM16618   7.546   6.506   0.931  0.0834  0.2031  0.0938
 3895PW       W16619   6.065   4.419   9.542 -0.4374 -0.6083 -0.2039
 3895PW      WP16620   6.189   4.441   9.481 -0.2758 -0.1945  0.2456
 3895PW      WM16621   5.973   4.515   9.585  0.2454  0.1358 -0.2773
 3896PW       W16622   3.665   5.343  10.641  0.7811  0.1894 -0.1803
 3896PW      WP16623   3.607   5.324  10.515  0.2625 -0.1153  0.0891
 3896PW      WM16624   3.592   5.277  10.740  0.4362  0.2174 -0.4084
 3897PW       W16625  11.922   5.919  11.111 -0.2856 -0.0579  0.0395
 3897PW      WP16626  11.869   5.805  11.174 -0.1288  0.0875  0.4469
 3897PW      WM16627  11.972   6.048  11.128 -0.2727 -0.0277 -0.2155
 3898PW       W16628   9.388   7.098   4.853  0.0828 -0.0018  0.0371
 3898PW      WP16629   9.248   7.102   4.853  0.0815  0.0863  0.3219
 3898PW      WM16630   9.417   7.169   4.736  0.1834 -0.3323 -0.1443
 3899PW       W16631  11.538   5.144   4.912 -0.2677  0.0834 -0.5729
 3899PW      WP16632  11.431   5.060   4.881 -0.0868 -0.4567  0.1299
 3899PW      WM16633  11.598   5.270   4.912 -0.1487  0.0299 -0.2915
 3900PW       W16634   7.018   3.327   4.900 -0.0690 -0.1181 -0.0766
 3900PW      WP16635   7.019   3.220   4.991  0.1673  0.0829  0.1666
 3900PW      WM16636   6.952   3.353   4.780  0.0761  0.0717 -0.1165
 3901PW       W16637   5.855   2.890   4.312 -0.1234 -0.0514 -0.0652
 3901PW      WP16638   5.972   2.943   4.368  0.0886 -0.0291 -0.5088
 3901PW      WM16639   5.886   2.759   4.350 -0.3203 -0.0631  0.0663
 3902PW       W16640   5.597   0.169   9.675 -0.2091  0.5283 -0.2021
 3902PW      WP16641   5.727   0.201   9.717 -0.0716 -0.1462 -0.0550
 3902PW      WM16642   5.661   0.292   9.657  0.2575  0.3665  0.2383
 3903PW       W16643   4.688   6.779   9.199  0.1655  0.2496  0.0284
 3903PW      WP16644   4.757   6.678   9.130 -0.0785  0.0495  0.0660
 3903PW      WM16645   4.560   6.793   9.254 -0.0910 -0.3174 -0.3772
 3904PW       W16646   0.823   0.191   1.828  0.1045 -0.0578  0.0555
 3904PW      WP16647   0.882   0.308   1.877  0.2455 -0.1815  0.1867
 3904PW      WM16648   0.716   0.173   1.916 -0.1101  0.1408 -0.1550
 3905PW       W16649   1.641   7.411   9.327 -0.0754  0.2483  0.0255
 3905PW      WP16650   1.523   7.369   9.264 -0.0579  0.0801  0.1018
 3905PW      WM16651   1.636   7.550   9.310  0.3136  0.2838  0.1511
 3906PW       W16652   6.029  10.928  12.873 -0.4383 -0.1787 -0.4168
 3906PW      WP16653   5.951  10.858  12.965 -0.2265 -0.0065 -0.0946
 3906PW      WM16654   6.117  10.868  12.782  0.1214  0.5149 -0.3855
 3907PW       W16655  11.290   4.886  10.392  0.0174 -0.2044 -0.6648
 3907PW      WP16656  11.364   4.896  10.273 -0.0658 -0.0539 -0.7054
 3907PW      WM16657  11.226   4.791  10.472 -0.0028  0.1365 -0.2570
 3908PW       W16658   2.624   6.567   9.448  0.5101  0.2541  0.0387
 3908PW      WP16659   2.723   6.666   9.436  0.7170  0.0672  0.1772
 3908PW      WM16660   2.646   6.578   9.586  0.1095 -0.0740  0.1350
 3909PW       W16661   9.604   8.474   0.510  0.0808  0.0163 -0.1198
 3909PW      WP16662   9.659   8.600   0.533 -0.1149  0.0983 -0.0950
 3909PW      WM16663   9.510   8.480   0.613 -0.2172  0.5280 -0.4040
 3910PW       W16664   5.300  12.057   2.594  0.3477 -0.2551 -0.3509
 3910PW      WP16665   5.313  12.144   2.703  0.5094 -0.0895 -0.4987
 3910PW      WM16666   5.160  12.069   2.594  0.3419 -0.3202 -0.3084
 3911PW       W16667   9.106   9.702  12.880  0.0878  0.1797  0.2802
 3911PW      WP16668   9.141   9.586  12.810  0.2908  0.2254  0.3018
 3911PW      WM16669   9.044   9.828  12.878 -0.0336  0.1190  0.1589
 3912PW       W16670  10.331   9.190  13.162  0.1889 -0.1658  0.5504
 3912PW      WP16671  10.414   9.111  13.082  0.2582  0.2748  0.1693
 3912PW      WM16672  10.410   9.305  13.160  0.3306 -0.2602  0.0418
 3913PW       W16673   8.046   8.646   8.914 -0.0222 -0.1351 -0.0435
 3913PW      WP16674   7.924   8.713   8.934 -0.0844 -0.2636  0.0131
 3913PW      WM16675   8.147   8.667   9.009  0.0133  0.3167 -0.1684
 3914PW       W16676   6.964   5.393  12.900  0.0122 -0.3429 -0.2256
 3914PW      WP16677   6.884   5.402  13.015  0.3711  0.4512 -0.0004
 3914PW      WM16678   7.096   5.371  12.940  0.0838  0.4382  0.0700
 3915PW       W16679   6.064  11.731   1.304  0.1425 -0.0482 -0.1825
 3915PW      WP16680   5.966  11.634   1.284  0.3249 -0.2473 -0.1252
 3915PW      WM16681   6.158  11.795   1.222  0.3297  0.0156  0.0766
 3916PW       W16682  11.468  11.579  11.549 -0.2684 -0.4492  0.3364
 3916PW      WP16683  11.426  11.698  11.609 -0.2626 -0.3809  0.2066
 3916PW      WM16684  11.355  11.504  11.585 -0.1948 -0.3476  0.8062
 3917PW       W16685   2.798   4.037  10.245 -0.0134 -0.2232 -0.1334
 3917PW      WP16686   2.827   4.020  10.109  0.5965 -0.0380 -0.0399
 3917PW      WM16687   2.737   3.912  10.254 -0.1774 -0.1597 -0.3306
 3918PW       W16688   5.419   4.563   4.183 -0.2581  0.1341 -0.0831
 3918PW      WP16689   5.284   4.549   4.219 -0.2453  0.2260  0.0036
 3918PW      WM16690   5.395   4.434   4.134 -0.5822  0.1546  0.0070
 3919PW       W16691  10.171   1.879  11.638  0.5013 -0.1587 -0.0224
 3919PW      WP16692  10.232   1.891  11.513  0.2424  0.5818 -0.1047
 3919PW      WM16693  10.087   1.792  11.709  0.3553  0.1369  0.1791
 3920PW       W16694   6.041   4.807   0.147  0.2080 -0.0300  0.1016
 3920PW      WP16695   6.119   4.791   0.032 -0.1728 -0.0973 -0.1592
 3920PW      WM16696   6.100   4.757   0.264  0.2447  0.3767  0.2665
 3921PW       W16697   9.608   7.938   8.209 -0.0291 -0.3315  0.1204
 3921PW      WP16698   9.713   8.009   8.267 -0.0469  0.2054 -0.4534
 3921PW      WM16699   9.702   7.861   8.139 -0.1767 -0.3122 -0.1039
 3922PW       W16700   6.660  10.302   1.828 -0.2460 -0.3495  0.0258
 3922PW      WP16701   6.659  10.252   1.697  0.0159 -0.0933 -0.0801
 3922PW      WM16702   6.535  10.319   1.890 -0.0436  0.0097  0.3552
 3923PW       W16703   7.830   0.087  10.119 -0.1752  0.3072  0.0866
 3923PW      WP16704   7.756   0.016  10.214  0.2612 -0.2781  0.0185
 3923PW      WM16705   7.917   0.041  10.020 -0.1514 -0.5442  0.4602
 3924PW       W16706   4.149   8.497  11.923 -0.2425  0.2928  0.2217
 3924PW      WP16707   4.044   8.492  11.831  0.4553  0.1041 -0.6278
 3924PW      WM16708   4.208   8.456  12.044  0.6611  0.0820 -0.2469
 3925PW       W16709   9.829  11.901   1.363 -0.6400  0.1137 -0.3243
 3925PW      WP16710   9.881  11.816   1.265 -0.0495 -0.2786  0.2808
 3925PW      WM16711   9.756  11.790   1.405  0.1784 -0.4109 -0.1684
 3926PW       W16712   8.221   1.416   1.535  0.5187  0.1757  0.1271
 3926PW      WP16713   8.319   1.501   1.585  0.0057  0.7550  0.2126
 3926PW      WM16714   8.142   1.371   1.641  0.2694  0.3685  0.0294
 3927PW       W16715   7.796   0.722  10.201 -0.3225 -0.0172 -0.3269
 3927PW      WP16716   7.932   0.717  10.235 -0.3802 -0.2522 -0.1138
 3927PW      WM16717   7.715   0.765  10.307 -0.2779  0.0199 -0.3078
 3928PW       W16718  10.996   4.407   8.942 -0.1917  0.4535  0.0751
 3928PW      WP16719  11.078   4.509   8.991  0.7412  0.0599 -0.5186
 3928PW      WM16720  11.003   4.363   8.809 -0.2248 -0.1441  0.2564
 3929PW       W16721   9.788   4.833  13.154  0.1591  0.2637 -0.3263
 3929PW      WP16722   9.882   4.934  13.179  0.1034  0.2160  0.1327
 3929PW      WM16723   9.694   4.759  13.081 -0.2233  0.3107  0.0929
 3930PW       W16724   5.899   1.137   1.973  0.4145  0.2008  0.3725
 3930PW      WP16725   5.796   1.229   1.949 -0.0949 -0.4641 -0.2511
 3930PW      WM16726   5.898   1.120   2.112 -0.3913 -0.0922  0.3590
 3931PW       W16727   5.251   7.664  11.541  0.2649  0.2477 -0.1605
 3931PW      WP16728   5.319   7.659  11.419 -0.0224 -0.3042 -0.3146
 3931PW      WM16729   5.256   7.570  11.645 -0.1630 -0.0410 -0.3838
 3932PW       W16730   1.142   1.048   3.484  0.3794 -0.4367 -0.2359
 3932PW      WP16731   1.181   0.991   3.363  0.1392 -0.6368 -0.2226
 3932PW      WM16732   1.072   1.114   3.586  0.1871 -0.3428 -0.4246
 3933PW       W16733   8.678   1.638  10.518 -0.3995  0.1591  0.0039
 3933PW      WP16734   8.665   1.524  10.599  0.2111 -0.2672 -0.4509
 3933PW      WM16735   8.704   1.517  10.454 -0.1804 -0.0058  0.3841
 3934PW       W16736   2.022   2.636  11.918  0.0617  0.5677  0.1367
 3934PW      WP16737   2.143   2.645  11.988  0.1086  0.2481  0.1057
 3934PW      WM16738   2.066   2.503  11.926 -0.8878  0.2333  0.4206
 3935PW       W16739  10.623   6.086   9.971  0.2682  0.4421  0.2059
 3935PW      WP16740  10.540   6.119  10.080  0.2104  0.1803  0.2431
 3935PW      WM16741  10.548   6.097   9.854  0.1805 -0.1940  0.1852
 3936PW       W16742   8.184   0.641   9.806  0.1102  0.2615 -0.2007
 3936PW      WP16743   8.308   0.684   9.758 -0.1099  0.3258 -0.7501
 3936PW      WM16744   8.134   0.518   9.759 -0.1647  0.4641 -0.4577
 3937PW       W16745   5.884   3.685  11.505  0.0744  0.4773  0.1036
 3937PW      WP16746   5.835   3.625  11.389 -0.2569  0.2780  0.3363
 3937PW      WM16747   5.792   3.579  11.502  0.3411  0.2474 -0.2544
 3938PW       W16748   7.679   0.133  10.987  0.2028 -0.1426 -0.1371
 3938PW      WP16749   7.746   0.192  10.879  0.1817 -0.1914 -0.1771
 3938PW      WM16750   7.645   0.011  10.927 -0.3424  0.1536 -0.4686
 3939PW       W16751   0.239   9.288   4.703 -0.4250 -0.1767  0.5963
 3939PW      WP16752   0.294   9.416   4.687 -0.2684 -0.3129 -0.1461
 3939PW      WM16753   0.210   9.233   4.828  0.1140  0.0812  0.8530
 3940PW       W16754   0.480   6.292   4.202 -0.3403  0.2826  0.2326
 3940PW      WP16755   0.562   6.211   4.281  0.3131  0.3089 -0.3642
 3940PW      WM16756   0.564   6.358   4.292  0.3906 -0.2788  0.0107
 3941PW       W16757   0.062   5.665  12.305  0.1801 -0.0444  0.0634
 3941PW      WP16758   0.031   5.730  12.185 -0.1147  0.0837  0.2024
 3941PW      WM16759   0.120   5.559  12.235  0.1842 -0.0772  0.1156
 3942PW       W16760   8.585  10.944   3.916 -0.2520  0.0244 -0.0367
 3942PW      WP16761   8.592  10.842   3.820 -0.2321 -0.0472  0.0406
 3942PW      WM16762   8.625  10.958   4.050 -0.0487  0.2023 -0.1117
 3943PW       W16763   8.306   1.851  12.138 -0.2969 -0.2337  0.3787
 3943PW      WP16764   8.393   1.924  12.057 -0.6903 -0.2811 -0.1111
 3943PW      WM16765   8.288   1.740  12.055 -0.5377  0.2887 -0.3212
 3944PW       W16766   5.539   6.841   4.826 -0.1408  0.0459  0.1680
 3944PW      WP16767   5.561   6.770   4.945 -0.2174  0.2848  0.3290
 3944PW      WM16768   5.459   6.753   4.753  0.1257  0.0685 -0.1598
 3945PW       W16769   1.271   9.304  10.126  0.0254 -0.0539  0.0695
 3945PW      WP16770   1.228   9.247  10.246 -0.7173  0.2797 -0.0094
 3945PW      WM16771   1.211   9.206  10.046 -0.1279 -0.0030  0.1200
 3946PW       W16772  11.628   6.879   9.408  0.3122 -0.0789 -0.0876
 3946PW      WP16773  11.628   6.888   9.269 -0.2092 -0.1067 -0.0991
 3946PW      WM16774  11.584   6.988   9.333  0.5042 -0.0740 -0.1978
 3947PW       W16775   4.083   1.757   8.820  0.5536  0.4782 -0.0233
 3947PW      WP16776   4.047   1.760   8.955  0.3086 -0.1540 -0.0590
 3947PW      WM16777   4.014   1.680   8.726  0.7122  0.1010  0.1563
 3948PW       W16778   0.150  12.047   5.722  0.5467 -0.3895  0.0923
 3948PW      WP16779   0.142  11.937   5.635  0.1517 -0.2073 -0.1126
 3948PW      WM16780   0.135  12.091   5.589  0.2665  0.2352  0.3127
 3949PW       W16781   0.353   6.793   4.303  0.3333  0.5085  0.5770
 3949PW      WP16782   0.254   6.870   4.366  0.0448  0.3642  0.3122
 3949PW      WM16783   0.367   6.661   4.347 -0.1949  0.1253 -0.2722
 3950PW       W16784   3.625   5.886   9.032 -0.0262 -0.0172  0.2483
 3950PW      WP16785   3.726   5.845   8.943 -0.2799  0.2671 -0.1887
 3950PW      WM16786   3.679   5.774   9.096 -0.4140 -0.4109 -0.0792
 3951PW       W16787   3.404   8.005  10.017  0.2580 -0.0614 -0.0367
 3951PW      WP16788   3.314   8.063  10.107  0.3934  0.3318 -0.1450
 3951PW      WM16789   3.447   7.936   9.903  0.2931 -0.4240  0.1884
 3952PW       W16790   1.105   1.626   3.759 -0.0053  0.0920  0.5724
 3952PW      WP16791   1.219   1.543   3.760  0.2134  0.3527 -0.0753
 3952PW      WM16792   0.978   1.671   3.722  0.1230 -0.0705 -0.1326
 3953PW       W16793  11.262   4.978  11.638 -0.0565  0.0686  0.0371
 3953PW      WP16794  11.390   4.985  11.579  0.1269  0.1081  0.4273
 3953PW      WM16795  11.202   5.067  11.727  0.4609  0.2577  0.2170
 3954PW       W16796   4.447   9.895   2.708  0.3526  0.0935 -0.1291
 3954PW      WP16797   4.313   9.891   2.747  0.3020  0.1468 -0.2930
 3954PW      WM16798   4.557   9.808   2.718  0.0172 -0.3096  0.2684
 3955PW       W16799   6.298   7.665   2.993  0.0045 -0.2500 -0.2988
 3955PW      WP16800   6.207   7.719   2.901 -0.1415 -0.2447 -0.1534
 3955PW      WM16801   6.311   7.530   3.028 -0.2554 -0.2223 -0.0824
 3956PW       W16802   0.346  10.993   2.283 -0.3639 -0.1880 -0.2015
 3956PW      WP16803   0.310  10.898   2.380 -0.0863  0.1747  0.2750
 3956PW      WM16804   0.334  11.057   2.406  0.1164  0.2557 -0.3708
 3957PW       W16805   6.173  10.737   9.160  0.9457  0.0956  0.2171
 3957PW      WP16806   6.156  10.637   9.064 -0.1031  0.4175  0.0019
 3957PW      WM16807   6.171  10.659   9.276 -0.2594 -0.0072  0.1949
 3958PW       W16808   7.178   8.165   4.116  0.2466 -0.0646 -0.2725
 3958PW      WP16809   7.190   8.113   4.245 -0.3810  0.3799 -0.0136
 3958PW      WM16810   7.184   8.304   4.104 -0.2610  0.0053  0.1386
 3959PW       W16811   7.272   4.314   0.603 -0.3858  0.2463  0.0183
 3959PW      WP16812   7.286   4.317   0.742  0.4092 -0.5671  0.0048
 3959PW      WM16813   7.336   4.431   0.562  0.3414 -0.2766 -0.4766
 3960PW       W16814   4.955   6.131   9.764  0.1148  0.2823  0.0539
 3960PW      WP16815   4.961   6.200   9.886  0.0342 -0.1977  0.3405
 3960PW      WM16816   4.855   6.160   9.671 -0.1704 -0.5486  0.0687
 3961PW       W16817   1.392   3.753  13.349  0.1222 -0.0710 -0.1913
 3961PW      WP16818   1.371   3.859  13.438  0.3756 -0.0808 -0.1157
 3961PW      WM16819   1.403   3.652  13.253 -0.2849  0.0373 -0.3646
 3962PW       W16820  10.936   2.225   0.751  0.7066 -0.1238 -0.1539
 3962PW      WP16821  10.931   2.117   0.840  0.0164 -0.0405 -0.0685
 3962PW      WM16822  10.926   2.364   0.758 -0.2595 -0.1656  0.0004
 3963PW       W16823   4.710   9.792  11.605 -0.0819  0.1213 -0.1762
 3963PW      WP16824   4.583   9.796  11.663  0.0749  0.0164  0.1923
 3963PW      WM16825   4.710   9.932  11.610 -0.2370  0.1130  0.3026
 3964PW       W16826   3.860   6.494   2.812 -0.1784  0.2558 -0.2959
 3964PW      WP16827   3.878   6.357   2.831 -0.1381  0.2570 -0.3255
 3964PW      WM16828   3.947   6.603   2.802  0.2708 -0.0829 -0.2331
 3965PW       W16829   7.633   9.398   8.172  0.0867  0.0699 -0.2015
 3965PW      WP16830   7.622   9.536   8.191  0.2245  0.0600 -0.0352
 3965PW      WM16831   7.626   9.492   8.069 -0.1471 -0.0708 -0.3172
 3966PW       W16832  11.084   8.664  12.142 -0.0262 -0.0398  0.0085
 3966PW      WP16833  11.203   8.719  12.192  0.1489 -0.2322 -0.1803
 3966PW      WM16834  11.096   8.795  12.095  0.4227 -0.1800 -0.3083
 3967PW       W16835  11.976   2.087   8.306  0.5476  0.4397 -0.2582
 3967PW      WP16836  12.022   2.014   8.417 -0.0769 -0.0801 -0.3092
 3967PW      WM16837  11.967   2.188   8.403 -0.1188  0.0954  0.0781
 3968PW       W16838  11.527  11.691  12.081  0.2085 -0.2246 -0.0909
 3968PW      WP16839  11.512  11.693  11.942 -0.4455  0.2482 -0.0335
 3968PW      WM16840  11.494  11.598  12.181  0.3427 -0.1720  0.0046
 3969PW       W16841   4.923   8.287   5.103 -0.2762 -0.0946  0.2264
 3969PW      WP16842   5.042   8.217   5.127 -0.1497 -0.0667 -0.2661
 3969PW      WM16843   4.815   8.309   5.016  0.0054 -0.5035 -0.2500
 3970PW       W16844   9.834   4.488   1.609 -0.4590 -0.0953  0.5295
 3970PW      WP16845   9.760   4.371   1.587 -0.0051 -0.2913 -0.1041
 3970PW      WM16846   9.893   4.548   1.497 -0.6321 -0.3635  0.2861
 3971PW       W16847   4.712   5.777   1.930 -0.3080  0.1854  0.5676
 3971PW      WP16848   4.618   5.712   1.850 -0.2435  0.6798  0.0573
 3971PW      WM16849   4.841   5.763   1.982  0.1661  0.4980 -0.4039
 3972PW       W16850   4.410   2.531  12.223 -0.0234  0.3911 -0.2218
 3972PW      WP16851   4.476   2.453  12.319  0.3662  0.5082 -0.3846
 3972PW      WM16852   4.278   2.518  12.269  0.0038  0.0478 -0.2315
 3973PW       W16853  10.912  12.088   2.216 -0.0577 -0.3430  0.0649
 3973PW      WP16854  10.939  12.207   2.148  0.4204 -0.2033  0.4637
 3973PW      WM16855  10.929  12.111   2.353  0.0038 -0.0339  0.0109
 3974PW       W16856  11.889  11.551  12.813  0.2421  0.4076  0.2490
 3974PW      WP16857  11.820  11.605  12.704 -0.1437  0.3520  0.4540
 3974PW      WM16858  11.772  11.621  12.845 -0.2054 -0.1366 -0.0853
 3975PW       W16859   8.514  11.000  11.353 -0.2711  0.1961  0.1243
 3975PW      WP16860   8.515  10.887  11.270  0.1717  0.5743 -0.4242
 3975PW      WM16861   8.563  11.131  11.346  0.3052 -0.0125 -0.0305
 3976PW       W16862   6.486   7.551  10.541  0.2035  0.0736  0.4767
 3976PW      WP16863   6.410   7.460  10.616  0.0491  0.0293  0.2719
 3976PW      WM16864   6.596   7.501  10.471 -0.0061 -0.0795  0.2489
 3977PW       W16865   0.638   4.583   4.258  0.3234 -0.0451 -0.3901
 3977PW      WP16866   0.724   4.491   4.318  0.1146  0.0707  0.1145
 3977PW      WM16867   0.501   4.562   4.240  0.2337  0.1753 -0.0286
 3978PW       W16868   6.668   1.633   8.932 -0.1397  0.0843  0.4645
 3978PW      WP16869   6.795   1.654   8.877 -0.4930 -0.0887 -0.5151
 3978PW      WM16870   6.560   1.545   8.926  0.1324 -0.2429 -0.2344
 3979PW       W16871   5.852   4.090   2.228 -0.2283  0.0164 -0.1603
 3979PW      WP16872   5.918   3.983   2.167 -0.0829 -0.0029  0.0272
 3979PW      WM16873   5.793   4.047   2.347 -0.4139 -0.0512 -0.2738
 3980PW       W16874   8.377   6.799  13.279 -0.5036  0.0552  0.0188
 3980PW      WP16875   8.275   6.829  13.187 -0.5039  0.5014  0.1503
 3980PW      WM16876   8.411   6.672  13.324 -0.5417  0.1293  0.2627
 3981PW       W16877   6.886   3.189   1.190 -0.2062  0.5126 -0.3249
 3981PW      WP16878   6.829   3.181   1.317  0.0662  0.1041 -0.2201
 3981PW      WM16879   6.901   3.213   1.327 -0.3388  0.3352 -0.2795
 3982PW       W16880   9.155   8.492  13.208  0.2666 -0.0746  0.3982
 3982PW      WP16881   9.252   8.581  13.256  0.1040  0.2843  0.0926
 3982PW      WM16882   9.036   8.481  13.281  0.0611  0.0343  0.0868
 3983PW       W16883  11.394   8.453   1.354  0.4873 -0.1656 -0.3920
 3983PW      WP16884  11.321   8.403   1.246 -0.0012  0.1560 -0.2313
 3983PW      WM16885  11.477   8.472   1.465 -0.1161 -0.0675  0.0698
 3984PW       W16886   5.022  11.083   1.764  0.1646 -0.0613 -0.5289
 3984PW      WP16887   4.937  11.119   1.659 -0.2610 -0.6109 -0.3974
 3984PW      WM16888   5.075  11.153   1.873  0.0134 -0.4560 -0.1875
 3985PW       W16889   9.814   5.230   5.339 -0.0146 -0.3549  0.3404
 3985PW      WP16890   9.939   5.281   5.376 -0.2300  0.3394  0.1768
 3985PW      WM16891   9.715   5.319   5.297  0.5716  0.0477 -0.2926
 3986PW       W16892   5.794   3.173   3.022 -0.3870  0.0317  0.2651
 3986PW      WP16893   5.763   3.310   3.018  0.1713  0.1954  0.7115
 3986PW      WM16894   5.886   3.134   2.923  0.1966  0.7075  0.4959
 3987PW       W16895   4.944   1.535   9.825  0.0957 -0.0134 -0.1328
 3987PW      WP16896   5.016   1.530   9.945 -0.1428  0.1217  0.0190
 3987PW      WM16897   4.820   1.598   9.839  0.1174 -0.0600  0.3606
 3988PW       W16898   1.093   8.226   9.471 -0.1385 -0.0962  0.6050
 3988PW      WP16899   1.159   8.206   9.349 -0.0302 -0.4611  0.7174
 3988PW      WM16900   1.202   8.298   9.519  0.0941  0.0480 -0.0809
 3989PW       W16901   9.375   3.538   5.499 -0.1479 -0.2634  0.5680
 3989PW      WP16902   9.314   3.574   5.378  0.6008  0.3153  0.3193
 3989PW      WM16903   9.315   3.425   5.442  0.2667 -0.1404 -0.1810
 3990PW       W16904  11.884   1.515   3.292 -0.3082 -0.0015  0.6361
 3990PW      WP16905  11.927   1.456   3.411 -0.5796 -0.5324  0.4847
 3990PW      WM16906  11.979   1.618   3.290  0.0031 -0.2513 -0.3691
 3991PW       W16907   2.221   7.309   4.332 -0.2051  0.1486  0.0360
 3991PW      WP16908   2.276   7.436   4.354  0.0570  0.0289  0.0894
 3991PW      WM16909   2.201   7.256   4.204 -0.1460  0.2264 -0.0062
 3992PW       W16910   5.611  11.303  12.271 -0.1133  0.1422 -0.3022
 3992PW      WP16911   5.624  11.219  12.159 -0.0406  0.0593 -0.2320
 3992PW      WM16912   5.706  11.397  12.313 -0.3218  0.0709  0.3743
 3993PW       W16913   2.316   0.980   9.769 -0.0305  0.1632  0.4844
 3993PW      WP16914   2.190   0.923   9.750 -0.0143  0.2206  0.1616
 3993PW      WM16915   2.325   1.027   9.637  0.0781 -0.3090  0.3141
 3994PW       W16916   0.118   4.298   0.057  0.0778 -0.3772  0.2559
 3994PW      WP16917   0.143   4.352   0.184 -0.4065  0.3686  0.0692
 3994PW      WM16918   0.066   4.212  -0.041 -0.1510  0.1246 -0.0823
 3995PW       W16919  12.101  11.976  13.006 -0.1710  0.2108 -0.6006
 3995PW      WP16920  12.185  11.866  13.025 -0.1486  0.2870 -0.2279
 3995PW      WM16921  12.074  12.026  13.134  0.0651 -0.3394 -0.3182
 3996PW       W16922   8.777   2.676   0.842 -0.3611  0.1569 -0.2249
 3996PW      WP16923   8.913   2.697   0.869 -0.2306 -0.3163 -0.4485
 3996PW      WM16924   8.744   2.727   0.716 -0.3709  0.3424 -0.1480
 3997PW       W16925  12.013  11.565   2.017  0.1868  0.4742 -0.1967
 3997PW      WP16926  12.029  11.467   2.116 -0.3396  0.2268 -0.3405
 3997PW      WM16927  11.914  11.543   1.921  0.1587 -0.2514 -0.0295
 3998PW       W16928   1.962   6.239   9.779 -0.0513  0.3302 -0.3443
 3998PW      WP16929   2.033   6.264   9.897  0.0246 -0.0979 -0.2901
 3998PW      WM16930   2.090   6.203   9.735  0.2020  0.2921  0.3624
 3999PW       W16931   8.912   4.985   0.889 -0.2768 -0.0142 -0.2122
 3999PW      WP16932   8.995   4.877   0.857  0.3923  0.3439  0.2009
 3999PW      WM16933   8.961   5.106   0.839  0.0456 -0.0969 -0.1099
 4000PW       W16934  11.802   0.195  11.122  0.4454 -0.7663 -0.3319
 4000PW      WP16935  11.706   0.151  11.029  0.1276 -0.2967 -0.2455
 4000PW      WM16936  11.910   0.284  11.119 -0.2062  0.0981 -0.2584
 4001PW       W16937   0.133   6.593   3.900 -0.2891 -0.1260  0.1391
 4001PW      WP16938   0.081   6.548   3.778 -0.2204 -0.4373  0.2199
 4001PW      WM16939   0.097   6.562   4.032 -0.3178  0.2744  0.2299
 4002PW       W16940   8.023   9.296  10.915  0.1167  0.1319 -0.6046
 4002PW      WP16941   8.011   9.416  10.844 -0.4234  0.2467 -0.3487
 4002PW      WM16942   7.906   9.251  10.852 -0.1275 -0.2552  0.0696
 4003PW       W16943  10.218  10.037   1.118 -0.5684  0.2927  0.0528
 4003PW      WP16944  10.150   9.963   1.021  0.3159 -0.1587 -0.2792
 4003PW      WM16945  10.184   9.976   1.239 -0.2790 -0.2260 -0.1146
 4004PW       W16946  10.691   6.761  11.995  0.4958 -0.0777 -0.0683
 4004PW      WP16947  10.627   6.782  11.873  0.1311  0.3312  0.1779
 4004PW      WM16948  10.588   6.668  11.975  0.0914  0.3599 -0.1075
 4005PW       W16949   3.585   4.264  12.897 -0.1711  0.0172  0.1466
 4005PW      WP16950   3.511   4.282  13.014  0.0875  0.0253  0.3139
 4005PW      WM16951   3.578   4.393  12.843 -0.0761 -0.0627 -0.0632
 4006PW       W16952   1.063   2.045   4.025 -0.1733 -0.0400 -0.2887
 4006PW      WP16953   1.199   2.032   3.995 -0.0005  0.3510  0.2552
 4006PW      WM16954   0.991   1.938   4.079  0.2199 -0.2439 -0.1481
 4007PW       W16955   2.815   2.349   9.013  0.2739  0.4558  0.3097
 4007PW      WP16956   2.778   2.274   9.125  0.1088  0.3525  0.1878
 4007PW      WM16957   2.917   2.445   9.012  0.6281  0.0929 -0.0440
 4008PW       W16958   4.387  10.892   4.016 -0.0407  0.3242  0.0050
 4008PW      WP16959   4.340  10.910   4.147  0.3368  0.2446  0.1591
 4008PW      WM16960   4.460  10.979   3.933 -0.0486  0.3871  0.0631
 4009PW       W16961   1.417   5.947   2.920  0.1992 -0.1419  0.0277
 4009PW      WP16962   1.456   5.861   3.023  0.3246 -0.0050  0.0960
 4009PW      WM16963   1.395   5.923   2.784  0.2635  0.1459 -0.0363
 4010PW       W16964   8.165   2.010   9.833 -0.3906  0.1842  0.1198
 4010PW      WP16965   8.072   1.964   9.740  0.2583 -0.3722 -0.2974
 4010PW      WM16966   8.236   1.939   9.931  0.1135  0.0210 -0.3400
 4011PW       W16967   6.662   7.346  12.089  0.0253 -0.1753 -0.2941
 4011PW      WP16968   6.700   7.213  12.068  0.3166 -0.1068 -0.2159
 4011PW      WM16969   6.555   7.285  12.155  0.0853 -0.0390 -0.0665
 4012PW       W16970   1.600   2.689   1.893 -0.1880 -0.0509  0.1167
 4012PW      WP16971   1.513   2.775   1.962 -0.4005 -0.2020  0.0429
 4012PW      WM16972   1.708   2.774   1.867 -0.1345 -0.2807 -0.4988
 4013PW       W16973   1.788   1.863   4.474 -0.1608  0.0348  0.2895
 4013PW      WP16974   1.706   1.841   4.585 -0.0298 -0.3507  0.3148
 4013PW      WM16975   1.719   1.985   4.486 -0.0808  0.0679  0.4171
 4014PW       W16976  10.928   3.094  10.663  0.0979 -0.2293  0.3593
 4014PW      WP16977  10.839   2.998  10.613  0.1037 -0.2119  0.3154
 4014PW      WM16978  11.033   3.152  10.591  0.4088 -0.6335  0.4664
 4015PW       W16979   0.099   7.299  12.595  0.0425  0.2532 -0.5181
 4015PW      WP16980   0.056   7.188  12.670  0.4289  0.3142 -0.1914
 4015PW      WM16981   0.099   7.396  12.695 -0.0494  0.3139 -0.5759
 4016PW       W16982   2.107   2.971  11.344  0.1665  0.1886 -0.0585
 4016PW      WP16983   2.128   3.036  11.222  0.3170  0.0385 -0.1141
 4016PW      WM16984   2.098   2.923  11.475  0.2005  0.0369 -0.1113
 4017PW       W16985   3.704  11.101   2.968 -0.0496 -0.0634 -0.1527
 4017PW      WP16986   3.667  11.047   3.092  0.3043  0.0285 -0.0002
 4017PW      WM16987   3.783  11.049   2.864 -0.2536 -0.3107 -0.1884
 4018PW       W16988   5.434   3.244   0.984 -0.0582  0.3049  0.2830
 4018PW      WP16989   5.481   3.132   0.914 -0.4189  0.3911 -0.1176
 4018PW      WM16990   5.410   3.285   1.115  0.0060  0.4034  0.2646
 4019PW       W16991  11.377   1.432   3.345  0.0097 -0.2856 -0.2626
 4019PW      WP16992  11.407   1.410   3.480 -0.1889  0.0351 -0.1623
 4019PW      WM16993  11.417   1.558   3.300 -0.2840 -0.0475  0.1132
 4020PW       W16994   4.572  11.606   2.151 -0.3610  0.3205 -0.1118
 4020PW      WP16995   4.448  11.616   2.216  0.0284  0.1397  0.7363
 4020PW      WM16996   4.600  11.610   2.014  0.2445 -0.2572 -0.0317
 4021PW       W16997   7.555   0.121  13.140  0.1812  0.0088  0.0728
 4021PW      WP16998   7.542   0.161  13.006 -0.6633  0.1712  0.1782
 4021PW      WM16999   7.676   0.139  13.208  0.2521 -0.6255  0.1397
 4022PW       W17000  10.801   6.544   3.810  0.2989 -0.2410 -0.1262
 4022PW      WP17001  10.734   6.476   3.912  0.4023  0.2476  0.2960
 4022PW      WM17002  10.806   6.674   3.862 -0.7580 -0.3343  0.3327
 4023PW       W17003   9.911   0.256   8.977  0.1544 -0.5879 -0.0745
 4023PW      WP17004   9.823   0.192   8.888  0.1469 -0.2367 -0.3363
 4023PW      WM17005  10.039   0.312   8.989 -0.0220 -0.2118  0.1507
 4024PW       W17006   6.897   9.078  11.619 -0.1979  0.0449  0.3236
 4024PW      WP17007   6.991   9.176  11.585 -0.5403  0.1894 -0.2745
 4024PW      WM17008   6.936   9.031  11.493 -0.0774 -0.0662  0.4004
 4025PW       W17009   1.050  12.171  11.805 -0.0590  0.2759 -0.2300
 4025PW      WP17010   1.171  12.107  11.776 -0.1048 -0.1517  0.4245
 4025PW      WM17011   0.955  12.141  11.903  0.1119 -0.0202 -0.1482
 4026PW       W17012   7.234  11.244   9.120 -0.1694  0.0544 -0.2534
 4026PW      WP17013   7.117  11.203   9.185  0.1086 -0.0652  0.1920
 4026PW      WM17014   7.221  11.147   9.019  0.4573 -0.4214  0.0852
 4027PW       W17015   0.892   0.036  10.290 -0.2238 -0.0205 -0.3026
 4027PW      WP17016   0.945   0.163  10.314 -0.3579 -0.0634  0.3122
 4027PW      WM17017   0.876  -0.101  10.267 -0.0516 -0.0925 -0.0182
 4028PW       W17018   7.089   9.180  12.988 -0.0599  0.0585 -0.1191
 4028PW      WP17019   7.155   9.104  12.891 -0.4310  0.1758 -0.4763
 4028PW      WM17020   7.211   9.200  13.054 -0.1340  0.5121 -0.1010
 4029PW       W17021   5.106   4.027   5.532 -0.2924  0.0857 -0.7116
 4029PW      WP17022   5.179   3.947   5.443 -0.1881 -0.4478 -0.1781
 4029PW      WM17023   5.189   4.124   5.475 -0.4654  0.1559 -0.8484
 4030PW       W17024  11.196   8.685   9.867 -0.2151 -0.3597 -0.3219
 4030PW      WP17025  11.189   8.657  10.004 -0.3340 -0.3295 -0.3212
 4030PW      WM17026  11.332   8.663   9.844 -0.1696 -0.0787 -0.3478
 4031PW       W17027   9.360   3.269   5.031 -0.0244  0.1967 -0.0600
 4031PW      WP17028   9.440   3.198   5.121  0.4033  0.5056 -0.1772
 4031PW      WM17029   9.230   3.233   4.995 -0.0775  0.1673  0.1561
 4032PW       W17030  11.735   9.388   2.105  0.0516 -0.1552  0.0049
 4032PW      WP17031  11.733   9.265   2.038 -0.0651  0.0376 -0.3590
 4032PW      WM17032  11.720   9.287   2.200 -0.2506  0.0515  0.1855
 4033PW       W17033   6.607   0.325  12.547  0.1735 -0.0437 -0.4223
 4033PW      WP17034   6.703   0.374  12.637  0.0212 -0.1304 -0.2075
 4033PW      WM17035   6.622   0.450  12.486  0.1557 -0.0022 -0.3421
 4034PW       W17036  10.301   9.215   2.160  0.0370  0.2464 -0.1984
 4034PW      WP17037  10.386   9.255   2.264  0.2292 -0.1426 -0.1981
 4034PW      WM17038  10.276   9.301   2.268  0.0252  0.1192 -0.0980
 4035PW       W17039   6.124   8.185   3.673 -0.3227 -0.0216 -0.5627
 4035PW      WP17040   6.240   8.264   3.675 -0.2609 -0.1136 -0.2549
 4035PW      WM17041   6.004   8.190   3.601 -0.5246  0.1179 -0.2290
 4036PW       W17042   2.801  11.644  12.633 -0.2249  0.2194  0.4986
 4036PW      WP17043   2.926  11.703  12.616 -0.0913  0.0480  0.8411
 4036PW      WM17044   2.718  11.745  12.583  0.5010  0.5513 -0.1412
 4037PW       W17045   3.436   7.472   4.525 -0.2803  0.1911  0.0396
 4037PW      WP17046   3.535   7.570   4.540  0.0976 -0.1377 -0.1842
 4037PW      WM17047   3.493   7.519   4.406 -0.3214  0.5985  0.1739
 4038PW       W17048   9.051  11.805   3.059  0.3956  0.5749  0.0737
 4038PW      WP17049   9.140  11.865   2.968  0.2008  0.3407 -0.2858
 4038PW      WM17050   8.969  11.771   2.950  0.2994 -0.0373  0.3226
 4039PW       W17051   4.923  10.100  12.064 -0.0038 -0.6796  0.0437
 4039PW      WP17052   4.811  10.111  11.981  0.2859  0.2195 -0.2882
 4039PW      WM17053   4.930  10.079  12.202 -0.4660 -0.4576  0.1075
 4040PW       W17054   4.905   4.952   2.370 -0.2267 -0.2788  0.5460
 4040PW      WP17055   4.891   5.088   2.339 -0.1653 -0.2874  0.4797
 4040PW      WM17056   4.854   4.879   2.263  0.1153  0.0067  0.1734
 4041PW       W17057   6.297   4.385   3.212 -0.1174  0.0289  0.0913
 4041PW      WP17058   6.168   4.345   3.248 -0.2321  0.0973 -0.2238
 4041PW      WM17059   6.239   4.512   3.198  0.4629  0.2809 -0.2197
 4042PW       W17060   8.660   0.080   3.807 -0.4897  0.1054  0.1366
 4042PW      WP17061   8.625   0.136   3.684 -0.1390  0.5517  0.2261
 4042PW      WM17062   8.632  -0.046   3.753 -0.6401  0.0756  0.2768
 4043PW       W17063   1.039   7.897   0.658 -0.0353 -0.0567  0.1060
 4043PW      WP17064   1.052   7.921   0.795  0.0751  0.4325  0.0211
 4043PW      WM17065   1.020   7.980   0.547  0.0998 -0.2131 -0.0366
 4044PW       W17066   3.890   4.673  12.180 -0.0376  0.3158  0.1466
 4044PW      WP17067   3.830   4.650  12.304 -0.0784  0.1887  0.1038
 4044PW      WM17068   3.979   4.782  12.182  0.1761  0.1470  0.0359
 4045PW       W17069   8.035   3.405   1.667  0.3475  0.1852 -0.2748
 4045PW      WP17070   8.065   3.293   1.589 -0.0780  0.1561 -0.4101
 4045PW      WM17071   8.164   3.458   1.656  0.2705  0.4060 -0.1515
 4046PW       W17072   4.786  10.522   9.719  0.0187 -0.0127  0.0149
 4046PW      WP17073   4.711  10.406   9.699 -0.2941  0.1819  0.0254
 4046PW      WM17074   4.750  10.395   9.765  0.6428 -0.0124  0.5871
 4047PW       W17075   3.832   1.681  11.250  0.3297  0.2173  0.1867
 4047PW      WP17076   3.920   1.663  11.358  0.1817  0.0346  0.2803
 4047PW      WM17077   3.946   1.745  11.201  0.5306 -0.0624  0.2756
 4048PW       W17078   4.913  10.256   2.616 -0.2412  0.3181  0.1035
 4048PW      WP17079   5.004  10.153   2.590  0.1327  0.5820  0.3299
 4048PW      WM17080   4.837  10.329   2.523  0.1095  0.8040  0.1799
 4049PW       W17081   4.057   4.892   3.109 -0.2057 -0.5538 -0.4863
 4049PW      WP17082   4.186   4.906   3.057  0.0546 -0.1290  0.1985
 4049PW      WM17083   3.977   4.860   3.220  0.3120  0.4779  0.2702
 4050PW       W17084   2.642   4.240   4.564 -0.4802  0.6295 -0.2210
 4050PW      WP17085   2.541   4.146   4.585  0.5146 -0.5188 -0.0199
 4050PW      WM17086   2.731   4.293   4.659 -0.4594  0.3667 -0.0906
 4051PW       W17087   2.362   9.395   0.865 -0.0830 -0.0024  0.2701
 4051PW      WP17088   2.300   9.494   0.943  0.1022  0.1696  0.2014
 4051PW      WM17089   2.359   9.289   0.956 -0.3011 -0.0607  0.1999
 4052PW       W17090   3.223   8.529   3.545 -0.2615  0.0669 -0.0479
 4052PW      WP17091   3.324   8.625   3.557 -0.0844 -0.0430 -0.5322
 4052PW      WM17092   3.269   8.452   3.653  0.2019  0.6158  0.1704
 4053PW       W17093   7.829   9.208   1.228 -0.2284  0.2700 -0.0054
 4053PW      WP17094   7.714   9.163   1.293 -0.0169  0.1053  0.2648
 4053PW      WM17095   7.948   9.262   1.279 -0.3237  0.3734  0.1096
 4054PW       W17096   8.609   4.732   0.198  0.4537 -0.0023  0.2284
 4054PW      WP17097   8.476   4.692   0.214  0.5429 -0.2990  0.2591
 4054PW      WM17098   8.704   4.680   0.108 -0.2600 -0.0477 -0.5635
 4055PW       W17099  11.848   2.666  11.264  0.5383  0.0136 -0.3887
 4055PW      WP17100  11.934   2.588  11.342  0.2665  0.0393 -0.0533
 4055PW      WM17101  11.802   2.596  11.151 -0.1120 -0.2029 -0.0160
 4056PW       W17102   1.163  11.428  11.259  0.1073  0.0091  0.1385
 4056PW      WP17103   1.061  11.493  11.328 -0.1419  0.4374 -0.5845
 4056PW      WM17104   1.173  11.549  11.189  0.2159 -0.2145 -0.2496
 4057PW       W17105   2.821   3.715   9.240 -0.5528  0.3940 -0.3522
 4057PW      WP17106   2.789   3.632   9.132  0.0261 -0.2325 -0.0834
 4057PW      WM17107   2.886   3.745   9.120  0.0113  0.2307 -0.1068
 4058PW       W17108   7.662  10.150  11.503 -0.1342  0.3600 -0.1277
 4058PW      WP17109   7.771  10.066  11.476 -0.2675  0.3122 -0.5459
 4058PW      WM17110   7.595  10.269  11.534 -0.2739  0.1949  0.2310
 4059PW       W17111   3.708   1.905  12.171 -0.6874 -0.2314  0.1453
 4059PW      WP17112   3.675   1.943  12.040  0.3692  0.2721 -0.0228
 4059PW      WM17113   3.728   2.027  12.237  0.2460 -0.2898  0.0276
 4060PW       W17114   4.733  10.842  11.339  0.2258  0.4043 -0.1504
 4060PW      WP17115   4.607  10.899  11.362  0.0312 -0.0250 -0.1100
 4060PW      WM17116   4.762  10.949  11.252 -0.0924  0.2293 -0.4894
 4061PW       W17117   0.918   9.142  11.844  0.2513 -0.0747 -0.3478
 4061PW      WP17118   0.988   9.039  11.908 -0.2121 -0.3179 -0.2100
 4061PW      WM17119   0.813   9.121  11.754  0.0843  0.0177 -0.1784
 4062PW       W17120   8.585   6.496  12.128  0.1506  0.1911  0.5607
 4062PW      WP17121   8.721   6.510  12.095  0.1537 -0.3940  0.2421
 4062PW      WM17122   8.569   6.451  12.260 -0.0082 -0.0724  0.4562
 4063PW       W17123   3.806   8.653   3.814  0.4755  0.1192 -0.1346
 4063PW      WP17124   3.870   8.530   3.798  0.0149 -0.2357  0.5516
 4063PW      WM17125   3.727   8.764   3.846  0.1130 -0.1112 -0.2012
 4064PW       W17126   5.877   5.177   9.734  0.0377  0.2356 -0.1538
 4064PW      WP17127   5.986   5.093   9.709 -0.0216 -0.0333  0.4095
 4064PW      WM17128   5.865   5.203   9.597  0.3860  0.5461 -0.1363
 4065PW       W17129   3.372   1.319   4.844 -0.0375  0.2558 -0.2205
 4065PW      WP17130   3.298   1.209   4.797  0.4283 -0.0934 -0.1814
 4065PW      WM17131   3.476   1.412   4.838  0.1417  0.0649 -0.1437
 4066PW       W17132   2.335   8.760   3.925 -0.3018 -0.5266  0.1383
 4066PW      WP17133   2.273   8.838   3.826  0.4324 -0.0945 -0.0213
 4066PW      WM17134   2.209   8.807   3.964 -0.0823 -0.0354  0.2900
 4067PW       W17135   9.661   1.688   4.901  0.2256  0.0350 -0.3043
 4067PW      WP17136   9.732   1.583   4.962  0.6102  0.2160 -0.4255
 4067PW      WM17137   9.567   1.768   4.836  0.1216  0.1121 -0.0643
 4068PW       W17138   4.943   1.842   9.178  0.0563 -0.1597 -0.2091
 4068PW      WP17139   5.051   1.782   9.245  0.0789  0.3699  0.2720
 4068PW      WM17140   4.849   1.757   9.238 -0.3005  0.2622 -0.1448
 4069PW       W17141   9.622   6.457  10.521 -0.1214  0.2142 -0.3586
 4069PW      WP17142   9.691   6.387  10.421  0.1281 -0.1052  0.0244
 4069PW      WM17143   9.574   6.371  10.421 -0.0594 -0.3467  0.0638
 4070PW       W17144   7.615   0.997  13.116 -0.3753 -0.3344 -0.0141
 4070PW      WP17145   7.738   0.993  13.050 -0.2533  0.2662  0.1540
 4070PW      WM17146   7.581   0.917  13.226 -0.6419 -0.5373 -0.2348
 4071PW       W17147   7.688   8.316  11.093  0.1562 -0.2875  0.3180
 4071PW      WP17148   7.549   8.303  11.077  0.1138  0.2633  0.1429
 4071PW      WM17149   7.707   8.454  11.110 -0.1794 -0.1847 -0.0735
 4072PW       W17150   6.271   4.719   2.829 -0.0590 -0.4260 -0.1986
 4072PW      WP17151   6.348   4.765   2.721  0.2261 -0.1041  0.1241
 4072PW      WM17152   6.142   4.748   2.783 -0.0839 -0.4098 -0.1195
 4073PW       W17153   2.831   8.700   1.301 -0.0960  0.0748  0.2943
 4073PW      WP17154   2.824   8.659   1.435 -0.2697  0.2056  0.3269
 4073PW      WM17155   2.824   8.786   1.411  0.6125  0.4827  0.0522
 4074PW       W17156   9.962   5.238   2.647  0.4254 -0.4548 -0.2269
 4074PW      WP17157  10.051   5.270   2.545  0.1147 -0.1063 -0.4047
 4074PW      WM17158   9.883   5.195   2.755 -0.0114 -0.0991 -0.3877
 4075PW       W17159   7.766   2.520  11.290 -0.0327  0.4477  0.0235
 4075PW      WP17160   7.695   2.456  11.187  0.0018  0.3062  0.0859
 4075PW      WM17161   7.653   2.526  11.373 -0.4218  0.3316 -0.4691
 4076PW       W17162   8.988   3.545  10.390 -0.2952  0.2129 -0.2472
 4076PW      WP17163   8.977   3.413  10.436  0.0647  0.2160 -0.1356
 4076PW      WM17164   8.920   3.634  10.307 -0.2664 -0.1697 -0.7039
 4077PW       W17165   1.592  10.484  13.011  0.0492  0.1813 -0.0109
 4077PW      WP17166   1.524  10.535  13.122 -0.0106 -0.1909  0.1324
 4077PW      WM17167   1.477  10.404  13.007  0.1267  0.0644 -0.7485
 4078PW       W17168   5.636   2.453  11.580 -0.2809 -0.0334  0.2037
 4078PW      WP17169   5.564   2.347  11.524 -0.0044  0.0417 -0.3326
 4078PW      WM17170   5.775   2.438  11.577 -0.2375  0.3155  0.2049
 4079PW       W17171   0.629   9.665   1.130 -0.4523  0.3044 -0.0614
 4079PW      WP17172   0.670   9.732   1.246 -0.1790  0.0915 -0.0305
 4079PW      WM17173   0.726   9.660   1.030 -0.2141 -0.0898  0.1781
 4080PW       W17174   9.563   4.902  12.114  0.1316  0.0201 -0.2015
 4080PW      WP17175   9.604   5.031  12.151  0.1739 -0.1855  0.5567
 4080PW      WM17176   9.653   4.804  12.071 -0.5429 -0.8215  0.1660
 4081PW       W17177   0.127   6.332   0.219  0.2705 -0.0078  0.1079
 4081PW      WP17178   0.151   6.341   0.082  0.1185 -0.1497  0.0702
 4081PW      WM17179   0.043   6.428   0.277  0.1707  0.0937 -0.1957
 4082PW       W17180   3.876  10.339   4.749 -0.1442 -0.1217  0.0138
 4082PW      WP17181   3.881  10.347   4.889  0.2470 -0.2492  0.0135
 4082PW      WM17182   3.783  10.444   4.752  0.2053  0.2016 -0.0947
 4083PW       W17183   9.367  10.819   1.178  0.4235  0.2532  0.2826
 4083PW      WP17184   9.367  10.690   1.125 -0.2590  0.1417  0.4996
 4083PW      WM17185   9.259  10.867   1.254  0.3241 -0.0298  0.3264
 4084PW       W17186   0.255   3.233   3.298 -0.0972  0.2678 -0.1485
 4084PW      WP17187   0.243   3.151   3.186  0.1562 -0.6348  0.4304
 4084PW      WM17188   0.299   3.120   3.368 -0.8318 -0.0387 -0.1347
 4085PW       W17189   5.988  10.439   4.434  0.4319 -0.3120  0.1741
 4085PW      WP17190   6.018  10.524   4.327  0.2966 -0.4242  0.0443
 4085PW      WM17191   5.990  10.458   4.573 -0.2490 -0.4129  0.2125
 4086PW       W17192   6.095   8.338   1.849  0.3017 -0.0695  0.1050
 4086PW      WP17193   6.076   8.355   1.986 -0.6977 -0.1888  0.0176
 4086PW      WM17194   6.183   8.440   1.812 -0.0772  0.0323 -0.6170
 4087PW       W17195   7.482   4.617   0.207  0.0317  0.3741  0.4918
 4087PW      WP17196   7.396   4.524   0.266  0.2085 -0.0440  0.1293
 4087PW      WM17197   7.369   4.569   0.140  0.1940  0.4584  0.1459
 4088PW       W17198   9.683   7.344   2.184  0.2541  0.1895  0.1692
 4088PW      WP17199   9.799   7.316   2.257  0.1581 -0.1590  0.1977
 4088PW      WM17200   9.717   7.321   2.050 -0.2688  0.3678 -0.0058
 4089PW       W17201  11.541   9.496   3.686  0.4550  0.1143 -0.1844
 4089PW      WP17202  11.451   9.601   3.665  0.0091 -0.1785  0.1690
 4089PW      WM17203  11.608   9.376   3.710 -0.0289 -0.0964  0.1999
 4090PW       W17204   2.906   4.906  11.818 -0.1581  0.3862  0.0638
 4090PW      WP17205   2.767   4.890  11.811 -0.1085  0.0535 -0.3824
 4090PW      WM17206   2.957   5.032  11.850  0.6326  0.0895  0.0771
 4091PW       W17207   0.888   8.210  11.812  0.0482 -0.1415 -0.1761
 4091PW      WP17208   1.017   8.253  11.779 -0.0163  0.3791  0.1781
 4091PW      WM17209   0.757   8.172  11.781 -0.0915  0.0201  0.1893
 4092PW       W17210   3.042  11.727   2.503 -0.0388  0.2860 -0.1553
 4092PW      WP17211   3.083  11.629   2.593 -0.1990  0.2494 -0.1200
 4092PW      WM17212   3.100  11.725   2.375 -0.3599 -0.3295 -0.3114
 4093PW       W17213   0.217   5.694   4.233 -0.2356  0.0076  0.1133
 4093PW      WP17214   0.321   5.694   4.327 -0.1358  0.4303  0.0145
 4093PW      WM17215   0.280   5.584   4.175  0.2846  0.1749  0.3300
 4094PW       W17216   0.902   4.020   2.244  0.0588 -0.0850 -0.1412
 4094PW      WP17217   0.790   4.039   2.163  0.0761 -0.1051 -0.1699
 4094PW      WM17218   0.972   4.073   2.353 -0.0797 -0.5046  0.1700
 4095PW       W17219   0.638   0.980   8.723  0.1472 -0.1653 -0.0857
 4095PW      WP17220   0.713   0.887   8.648  0.2149 -0.3187  0.1649
 4095PW      WM17221   0.516   0.920   8.754  0.0484  0.1315  0.1176
 4096PW       W17222   4.950   0.045   3.492 -0.6601 -0.1576 -0.0136
 4096PW      WP17223   4.968   0.056   3.630  0.1104  0.6627 -0.1298
 4096PW      WM17224   4.979   0.064   3.356 -0.0113  0.1107  0.1430
 4097PW       W17225   3.969   9.039   8.823 -0.1294  0.1306 -0.1296
 4097PW      WP17226   3.994   8.915   8.763  0.6597  0.2418 -0.0787
 4097PW      WM17227   3.986   9.170   8.777  0.2412  0.2747  0.3762
 4098PW       W17228   6.459   0.063   4.327  0.4459 -0.1591 -0.0593
 4098PW      WP17229   6.496   0.036   4.460  0.3964  0.0112 -0.0100
 4098PW      WM17230   6.438   0.133   4.208  0.0507  0.1532  0.1819
 4099PW       W17231   1.154   9.698  11.713  0.1118  0.1150  0.0272
 4099PW      WP17232   1.081   9.772  11.806  0.0281  0.3289 -0.2051
 4099PW      WM17233   1.190   9.735  11.583 -0.0908  0.1827 -0.0120
 4100PW       W17234   9.190  11.491  11.014  0.2830  0.3880  0.2166
 4100PW      WP17235   9.326  11.481  10.980  0.1279  0.3635 -0.4662
 4100PW      WM17236   9.141  11.535  11.137 -0.6830  0.1278 -0.0367
 4101PW       W17237   4.602   1.972   4.338 -0.3324  0.1029 -0.3102
 4101PW      WP17238   4.577   1.923   4.466 -0.3454 -0.0003 -0.3523
 4101PW      WM17239   4.734   1.926   4.337 -0.1932  0.4766 -0.5269
 4102PW       W17240   9.296  10.383   1.006  0.1302 -0.1123 -0.1002
 4102PW      WP17241   9.181  10.328   1.066  0.1821 -0.6383 -0.4446
 4102PW      WM17242   9.330  10.511   1.050 -0.2648 -0.1436  0.3395
 4103PW       W17243   9.910   2.944  12.343 -0.2552 -0.4166 -0.2806
 4103PW      WP17244   9.923   2.814  12.392  0.7335 -0.2421  0.0239
 4103PW      WM17245   9.796   2.955  12.423 -0.4172 -0.0720 -0.5399
 4104PW       W17246  10.441   5.390   4.328 -0.3090 -0.3108 -0.2256
 4104PW      WP17247  10.456   5.510   4.258 -0.1442  0.1310  0.5086
 4104PW      WM17248  10.367   5.455   4.427 -0.0066 -0.1190 -0.1176
 4105PW       W17249   0.627   6.594   0.782 -0.1143  0.0154 -0.6653
 4105PW      WP17250   0.521   6.653   0.852  0.3793 -0.3632  0.5356
 4105PW      WM17251   0.558   6.648   0.672 -0.5577  0.4349 -0.2052
 4106PW       W17252   4.208   0.603   0.704  0.2544  0.1224 -0.2096
 4106PW      WP17253   4.077   0.653   0.717  0.0932  0.0468 -1.1545
 4106PW      WM17254   4.204   0.547   0.575 -0.2166 -0.1339 -0.0979
 4107PW       W17255   5.781  11.357   2.855  0.1969 -0.1399  0.0042
 4107PW      WP17256   5.775  11.235   2.923 -0.3060 -0.0397  0.1661
 4107PW      WM17257   5.705  11.467   2.811  0.5389 -0.0417 -0.3694
 4108PW       W17258   3.748  10.318   1.974  0.0477 -0.1529  0.3945
 4108PW      WP17259   3.773  10.244   2.090  0.3707 -0.7525 -0.0322
 4108PW      WM17260   3.868  10.372   2.022  0.1279  0.4868 -0.4084
 4109PW       W17261   1.021   1.682   1.616 -0.4130 -0.2465 -0.8322
 4109PW      WP17262   1.021   1.822   1.615 -0.2084 -0.2046  0.1557
 4109PW      WM17263   0.980   1.549   1.594  0.0031 -0.4361 -0.5285
 4110PW       W17264   3.282   5.844  11.788  0.3811  0.2127  0.2242
 4110PW      WP17265   3.295   5.819  11.925 -0.1261  0.2706  0.2923
 4110PW      WM17266   3.244   5.978  11.773 -0.2248  0.0906  0.5228
 4111PW       W17267   9.789   7.109   3.721 -0.1814  0.1716 -0.1744
 4111PW      WP17268   9.920   7.071   3.690 -0.2391 -0.5456  0.3226
 4111PW      WM17269   9.763   7.173   3.842 -0.5491 -0.0472 -0.1307
 4112PW       W17270   2.235   8.591   1.635  0.0727 -0.0414  0.0704
 4112PW      WP17271   2.201   8.714   1.693  0.4977 -0.0759  0.4128
 4112PW      WM17272   2.198   8.592   1.500  0.4258  0.5642 -0.0380
 4113PW       W17273  10.292   3.351  13.110  0.2112 -0.1641  0.2293
 4113PW      WP17274  10.178   3.410  13.055  0.1132 -0.3137  0.2698
 4113PW      WM17275  10.294   3.219  13.065  0.0144 -0.3503  0.7279
 4114PW       W17276   0.437   2.788  12.221 -0.3468 -0.1748 -0.0154
 4114PW      WP17277   0.542   2.757  12.308 -0.0101 -0.2261 -0.4263
 4114PW      WM17278   0.320   2.821  12.290 -0.2850  0.2236 -0.0892
 4115PW       W17279  10.443   7.082   1.223 -0.1240 -0.2692  0.2682
 4115PW      WP17280  10.319   7.058   1.284 -0.0200 -0.5605  0.3750
 4115PW      WM17281  10.540   7.181   1.242 -0.2546  0.0296 -0.4719
 4116PW       W17282  11.402   6.427   4.750  0.1138  0.2278  0.4295
 4116PW      WP17283  11.512   6.382   4.675  0.1749 -0.0799  0.6934
 4116PW      WM17284  11.473   6.398   4.867  0.3061  0.0870  0.2815
 4117PW       W17285   0.505   8.651   4.380  0.0654  0.1073  0.2112
 4117PW      WP17286   0.566   8.534   4.334  0.0888  0.1546  0.1215
 4117PW      WM17287   0.560   8.762   4.446 -0.5269  0.3008  0.4161
 4118PW       W17288   5.049   3.744   3.978 -0.3429  0.0590 -0.2520
 4118PW      WP17289   5.069   3.882   3.989 -0.0526  0.0360 -0.4267
 4118PW      WM17290   5.044   3.604   3.984  0.1149  0.0448  0.0933
 4119PW       W17291   8.017   8.546   4.543 -0.2028  0.1239 -0.2322
 4119PW      WP17292   8.056   8.638   4.445  0.0572  0.3604  0.0812
 4119PW      WM17293   7.904   8.547   4.460 -0.2010  0.1896 -0.2343
 4120PW       W17294   0.814   3.342   0.179 -0.0704 -0.0121  0.2459
 4120PW      WP17295   0.842   3.478   0.193  0.1716  0.0522 -0.6019
 4120PW      WM17296   0.817   3.445   0.274 -0.2116  0.3250 -0.1037
 4121PW       W17297   9.209   1.912   9.462 -0.1195 -0.0341  0.1130
 4121PW      WP17298   9.207   1.807   9.368  0.4123  0.1101 -0.0727
 4121PW      WM17299   9.133   1.814   9.528  0.0520  0.1460  0.5983
 4122PW       W17300   0.652   6.754   1.545  0.0726  0.1458  0.0012
 4122PW      WP17301   0.770   6.765   1.618  0.0123 -0.1184  0.1440
 4122PW      WM17302   0.524   6.811   1.554  0.0970  0.2301 -0.1602
 4123PW       W17303   8.764   8.451   3.360  0.0489  0.3951  0.2325
 4123PW      WP17304   8.747   8.405   3.229  0.2627  0.0170  0.3293
 4123PW      WM17305   8.721   8.435   3.493  0.1106 -0.0777  0.2062
 4124PW       W17306   3.663   6.988   4.481  0.0477  0.1758 -0.5133
 4124PW      WP17307   3.652   7.122   4.522 -0.0944 -0.0380  0.2188
 4124PW      WM17308   3.733   7.002   4.360 -0.3634  0.5491 -0.7240
 4125PW       W17309   1.955   7.574   9.683  0.0316 -0.2004 -0.3134
 4125PW      WP17310   2.024   7.520   9.792 -0.1405 -0.0935 -0.1504
 4125PW      WM17311   2.092   7.572   9.655  0.0891 -0.4127 -0.0296
 4126PW       W17312   6.533   3.347   3.462  0.1347 -0.0386  0.3170
 4126PW      WP17313   6.622   3.436   3.524  0.0400  0.3067 -0.0258
 4126PW      WM17314   6.497   3.258   3.564  0.1786  0.0199  0.3839
 4127PW       W17315   0.548   7.230   1.847  0.2644 -0.3715 -0.1165
 4127PW      WP17316   0.521   7.254   1.982  0.3715 -0.1283 -0.1351
 4127PW      WM17317   0.671   7.295   1.864 -0.1257  0.3072  0.3259
 4128PW       W17318   0.985   9.302   1.178 -0.2645  0.2266 -0.2408
 4128PW      WP17319   1.005   9.351   1.049 -0.2841  0.4457 -0.1634
 4128PW      WM17320   0.916   9.207   1.256  0.2771  0.1186  0.1348
 4129PW       W17321  10.813   8.311  12.968  0.1127  0.0394 -0.0431
 4129PW      WP17322  10.905   8.394  12.903  1.0918 -0.7141  0.2544
 4129PW      WM17323  10.699   8.380  13.011 -0.1041 -0.2634 -0.1096
 4130PW       W17324   4.003   5.174   5.074  0.1799 -0.2084  0.1339
 4130PW      WP17325   4.137   5.182   5.114  0.2833  0.7167 -0.2767
 4130PW      WM17326   3.996   5.311   5.047 -0.1894 -0.2744 -0.1392
 4131PW       W17327   7.670   6.891  10.744 -0.6878 -0.0366 -0.5048
 4131PW      WP17328   7.728   7.013  10.782 -0.5033 -0.3072  0.1415
 4131PW      WM17329   7.539   6.869  10.788 -0.5255  0.0078  0.0360
 4132PW       W17330   0.320   8.778   9.277  0.1597  0.3195 -0.4819
 4132PW      WP17331   0.400   8.664   9.292 -0.2780 -0.0028 -0.4895
 4132PW      WM17332   0.213   8.857   9.320  0.3540  0.3241  0.0308
 4133PW       W17333  11.692   4.998   0.915 -0.2253 -0.4660 -0.6053
 4133PW      WP17334  11.616   4.893   0.967  0.0988 -0.3849  0.0981
 4133PW      WM17335  11.781   4.906   0.972 -0.1146  0.0256  0.0893
 4134PW       W17336   9.140  10.450   1.500 -0.4212  0.2513 -0.3322
 4134PW      WP17337   9.109  10.567   1.430 -0.3864  0.3239 -0.2289
 4134PW      WM17338   9.240  10.528   1.440 -0.3092  0.2341 -0.1729
 4135PW       W17339  11.462   8.138   0.766 -0.0841 -0.1678  0.1117
 4135PW      WP17340  11.506   8.025   0.696  0.2714 -0.2542  0.4616
 4135PW      WM17341  11.387   8.046   0.839 -0.0974 -0.0927  0.1937
 4136PW       W17342   9.097   9.894   4.834 -0.1628  0.0990 -0.0502
 4136PW      WP17343   9.032   9.929   4.715  0.1490  0.0512 -0.2399
 4136PW      WM17344   9.183   9.801   4.775 -0.0584  0.2361 -0.1141
 4137PW       W17345   6.488   6.296  11.954 -0.1898 -0.1866 -0.0848
 4137PW      WP17346   6.503   6.296  12.093 -0.1016 -0.0653 -0.0937
 4137PW      WM17347   6.532   6.428  11.938 -0.0370 -0.2132  0.0925
 4138PW       W17348   5.016   5.410   2.621 -0.0970  0.0427  0.1322
 4138PW      WP17349   5.080   5.413   2.745  0.2694 -0.4241 -0.0302
 4138PW      WM17350   4.997   5.548   2.615 -0.2666  0.0107 -0.2456
 4139PW       W17351   1.453  10.570   3.288  0.0747 -0.0083  0.0611
 4139PW      WP17352   1.486  10.446   3.342  0.2814 -0.0768 -0.2091
 4139PW      WM17353   1.568  10.650   3.288  0.1040 -0.0349  0.5839
 4140PW       W17354   7.714   6.535  10.478 -0.1068 -0.2683  0.1318
 4140PW      WP17355   7.695   6.644  10.392 -0.1730 -0.3436  0.0503
 4140PW      WM17356   7.798   6.570  10.585 -0.1155  0.2055 -0.0068
 4141PW       W17357  10.217  10.794   2.511  0.3378 -0.0825 -0.5760
 4141PW      WP17358  10.230  10.795   2.650 -0.3966  0.2327 -0.4816
 4141PW      WM17359  10.162  10.667   2.534 -0.0492  0.1382 -0.1990
 4142PW       W17360   4.010   2.250  10.941 -0.2363 -0.3479  0.0784
 4142PW      WP17361   4.115   2.159  10.957  0.0906  0.1211  0.9336
 4142PW      WM17362   3.917   2.354  10.955 -0.0015 -0.1734  0.4119
 4143PW       W17363   4.326   0.390  13.182 -0.6270  0.0416 -0.1119
 4143PW      WP17364   4.252   0.467  13.272  0.0867  0.3010  0.2925
 4143PW      WM17365   4.250   0.272  13.192 -0.1703 -0.2659 -0.1210
 4144PW       W17366   0.890   4.318   0.337 -0.0096  0.0473 -0.1574
 4144PW      WP17367   0.916   4.329   0.199 -0.1423 -0.0778 -0.1936
 4144PW      WM17368   0.915   4.183   0.361  0.1843  0.1197  0.0716
 4145PW       W17369   4.630   9.276   3.029  0.0905  0.0220 -0.3059
 4145PW      WP17370   4.625   9.416   3.033 -0.7685  0.0154  0.2502
 4145PW      WM17371   4.725   9.210   2.951  0.4023  0.1799 -0.0711
 4146PW       W17372   2.490   0.867   1.333 -0.1369  0.1442 -0.2828
 4146PW      WP17373   2.503   0.779   1.224  0.6016 -0.0762 -0.0510
 4146PW      WM17374   2.383   0.795   1.386  0.2563 -0.0073  0.3613
 4147PW       W17375   8.059   8.751   5.100  0.0332  0.1283  0.3363
 4147PW      WP17376   7.963   8.852   5.107 -0.3100 -0.1734  0.1282
 4147PW      WM17377   8.047   8.612   5.111  0.0175  0.1188  0.2141
 4148PW       W17378   9.660  11.424   3.046  0.5344  0.1022 -0.1676
 4148PW      WP17379   9.751  11.347   3.119  0.0803 -0.1341  0.1731
 4148PW      WM17380   9.632  11.424   2.908 -0.0843  0.4816 -0.0619
 4149PW       W17381   9.373   4.190   0.932 -0.4448  0.3446 -0.1857
 4149PW      WP17382   9.503   4.220   0.976 -0.0926 -0.7186 -0.3578
 4149PW      WM17383   9.311   4.284   1.015  0.3925  0.5298  0.3005
 4150PW       W17384  10.632   7.054  10.251  0.3026  0.1759  0.0332
 4150PW      WP17385  10.762   7.038  10.202  0.0794 -0.2406 -0.4795
 4150PW      WM17386  10.573   6.935  10.296  0.3504  0.0213 -0.2962
 4151PW       W17387   9.738   1.081  11.436  0.4106 -0.0630 -0.0862
 4151PW      WP17388   9.707   1.009  11.320  0.1057 -0.3657  0.1734
 4151PW      WM17389   9.647   1.056  11.539 -0.0855  0.2720 -0.4191
 4152PW       W17390   6.634   0.376   1.878 -0.1232  0.3476  0.0890
 4152PW      WP17391   6.573   0.365   2.004 -0.5920  0.2428 -0.1331
 4152PW      WM17392   6.559   0.494   1.893 -0.1782  0.3041  0.1613
 4153PW       W17393   1.562   0.014  12.123 -0.1728  0.0241 -0.0847
 4153PW      WP17394   1.451   0.048  12.201 -0.1302 -0.1432  0.0508
 4153PW      WM17395   1.575   0.122  12.210  0.1475  0.0385 -0.1459
 4154PW       W17396   5.835   7.655  10.943 -0.3738 -0.4695 -0.5219
 4154PW      WP17397   5.843   7.752  10.842 -0.4203  0.2695  0.1350
 4154PW      WM17398   5.705   7.700  10.966 -0.0385  0.3751 -0.0694
 4155PW       W17399   2.467   5.704   1.507  0.0769  0.3038  0.0473
 4155PW      WP17400   2.405   5.762   1.395  0.0257  0.1401 -0.0120
 4155PW      WM17401   2.383   5.601   1.552  0.1523  0.4307  0.4932
 4156PW       W17402   8.254   2.326   2.083  0.2848 -0.1373 -0.0393
 4156PW      WP17403   8.197   2.237   2.175 -0.2441 -0.0775 -0.2913
 4156PW      WM17404   8.258   2.466   2.092  0.3510 -0.1468  0.0984
 4157PW       W17405   5.004   2.625   2.642 -0.2054  0.3027 -0.4530
 4157PW      WP17406   5.117   2.706   2.659 -0.0808  0.0431  0.0332
 4157PW      WM17407   5.103   2.724   2.634  0.4120 -0.2627 -0.2355
 4158PW       W17408   6.879  12.003  12.618 -0.0426 -0.0348 -0.1604
 4158PW      WP17409   6.753  11.962  12.662  0.0050  0.0572  0.0689
 4158PW      WM17410   6.893  11.893  12.703  0.1324  0.2072  0.1361
 4159PW       W17411  11.361   1.261   8.453 -0.2339 -0.0370  0.0149
 4159PW      WP17412  11.271   1.182   8.525 -0.1942 -0.0521  0.0483
 4159PW      WM17413  11.399   1.259   8.588  0.0336  0.6551 -0.0304
 4160PW       W17414  10.636   9.999  10.877 -0.5800 -0.1275 -0.4767
 4160PW      WP17415  10.630  10.126  10.818 -0.2428  0.1914  0.1231
 4160PW      WM17416  10.538   9.937  10.955 -0.4892  0.3052  0.0141
 4161PW       W17417   6.470  11.536   8.544  0.4306  0.2613  0.4263
 4161PW      WP17418   6.363  11.478   8.612  0.1137  0.0847 -0.1963
 4161PW      WM17419   6.532  11.616   8.447  0.3784  0.2791  0.4074
 4162PW       W17420   3.852   3.316   2.235 -0.0129 -0.0688 -0.1224
 4162PW      WP17421   3.938   3.253   2.145 -0.1406 -0.0408 -0.2672
 4162PW      WM17422   3.841   3.439   2.170 -0.2786  0.1297  0.2756
 4163PW       W17423   1.165   5.150  10.968  0.0900 -0.0501 -0.4468
 4163PW      WP17424   1.296   5.197  10.955  0.2971 -0.4534  0.0217
 4163PW      WM17425   1.226   5.026  10.990 -0.1009 -0.0498  0.1621
 4164PW       W17426   7.103   0.178   1.682 -0.3789 -0.0613 -0.1785
 4164PW      WP17427   7.065   0.274   1.777 -0.1538  0.0154 -0.1642
 4164PW      WM17428   7.069   0.087   1.783 -0.0886 -0.1253 -0.1341
 4165PW       W17429   1.374   0.250  10.196 -0.0939 -0.1143 -0.4218
 4165PW      WP17430   1.424   0.312  10.311 -0.1564  0.0113 -0.4615
 4165PW      WM17431   1.389   0.258  10.057  0.2678 -0.0539 -0.3841
 4166PW       W17432   8.473   9.952   0.306  0.1570 -0.3558 -0.0855
 4166PW      WP17433   8.477  10.037   0.195 -0.3818  0.1315  0.2364
 4166PW      WM17434   8.485   9.890   0.431  0.2302  0.7267  0.5105
 4167PW       W17435   0.752   1.520   0.339  0.0278  0.1389 -0.0712
 4167PW      WP17436   0.816   1.583   0.446 -0.2195  0.3740 -0.0584
 4167PW      WM17437   0.735   1.649   0.285 -0.0326  0.0553 -0.2574
 4168PW       W17438   4.856   0.133   4.466  0.3906 -0.2027  0.1278
 4168PW      WP17439   4.797   0.019   4.523 -0.2600 -0.0353 -0.1550
 4168PW      WM17440   4.972   0.177   4.530  0.2714  0.2585  0.0433
 4169PW       W17441   4.527   7.279   4.231  0.5874  0.1888 -0.0984
 4169PW      WP17442   4.555   7.198   4.341 -0.2292 -0.3168 -0.2231
 4169PW      WM17443   4.482   7.318   4.358  0.5076  0.0328 -0.0781
 4170PW       W17444  12.058   6.711  10.154  0.3300  0.6614  0.2458
 4170PW      WP17445  12.109   6.587  10.195 -0.6891  0.0067 -0.2220
 4170PW      WM17446  12.148   6.670  10.055  0.3428  0.2705  0.4087
 4171PW       W17447   6.095   9.377   2.499 -0.1035  0.0613  0.2466
 4171PW      WP17448   6.044   9.317   2.383  0.1226  0.3963 -0.0347
 4171PW      WM17449   5.964   9.411   2.534 -0.0959  0.3625  0.0021
 4172PW       W17450   4.358   2.021   0.420  0.2918 -0.2167  0.1181
 4172PW      WP17451   4.224   1.978   0.416  0.1764  0.1371 -0.0101
 4172PW      WM17452   4.454   2.082   0.501  0.0380 -0.1596  0.3867
 4173PW       W17453  11.416   0.892   9.218 -0.1016 -0.2227 -0.3526
 4173PW      WP17454  11.547   0.903   9.266 -0.0909 -0.5228 -0.3053
 4173PW      WM17455  11.414   0.794   9.317  0.5586  0.3318  0.2677
 4174PW       W17456   7.596   8.434  13.283 -0.2873  0.2179  0.5490
 4174PW      WP17457   7.557   8.568  13.268  0.4511  0.3744 -0.4908
 4174PW      WM17458   7.581   8.479  13.151  0.6786 -0.2146  0.2457
 4175PW       W17459   6.997   3.907  10.896  0.6390  0.2375  0.1426
 4175PW      WP17460   7.084   3.807  10.850  0.4704 -0.1469  0.6170
 4175PW      WM17461   6.927   4.027  10.900  0.3131  0.0517  0.2007
 4176PW       W17462  10.573   8.568   4.831 -0.2646 -0.2405 -0.0352
 4176PW      WP17463  10.620   8.437   4.851  0.2890  0.0239  0.5919
 4176PW      WM17464  10.713   8.575   4.841 -0.2970  0.2573  0.1937
 4177PW       W17465  10.380   8.231   1.223  0.2047  0.1937 -0.2217
 4177PW      WP17466  10.389   8.152   1.108  0.0149 -0.2432  0.0508
 4177PW      WM17467  10.490   8.168   1.283  0.1878 -0.2657 -0.6461
 4178PW       W17468   4.690   2.720   2.195  0.2228 -0.2334 -0.0578
 4178PW      WP17469   4.821   2.671   2.195  0.2363 -0.2491  0.6770
 4178PW      WM17470   4.645   2.608   2.123 -0.4060  0.1132 -0.2382
 4179PW       W17471   4.731   5.027  11.175 -0.0430 -0.1364 -0.1620
 4179PW      WP17472   4.791   5.153  11.192 -0.1679 -0.0992  0.0219
 4179PW      WM17473   4.855   5.055  11.115  0.0385 -0.0787  0.0281
 4180PW       W17474   3.696   9.205   0.126 -0.6243  0.2722  0.2629
 4180PW      WP17475   3.672   9.343   0.130 -0.4326  0.3365 -0.3187
 4180PW      WM17476   3.584   9.121   0.122 -0.3964 -0.0442  0.3277
 4181PW       W17477   8.204  11.299   3.462  0.0082  0.5426  0.2688
 4181PW      WP17478   8.074  11.348   3.444 -0.1933  0.0894  0.3987
 4181PW      WM17479   8.138  11.266   3.582 -0.3366  0.3072  0.0261
 4182PW       W17480   0.275  11.949   1.778 -0.2982 -0.0805  0.1449
 4182PW      WP17481   0.271  11.850   1.877 -0.0232  0.0308  0.2731
 4182PW      WM17482   0.182  11.995   1.685  0.2781  0.1188 -0.3617
 4183PW       W17483   0.805   2.453   4.711 -0.4417 -0.2561  0.0525
 4183PW      WP17484   0.874   2.448   4.833 -0.1465 -0.3402 -0.1125
 4183PW      WM17485   0.865   2.527   4.608 -0.0264  0.3915  0.7112
 4184PW       W17486   7.651   7.434   1.411  0.2560  0.0963 -0.2785
 4184PW      WP17487   7.657   7.296   1.432  0.0802  0.1333  0.0510
 4184PW      WM17488   7.754   7.367   1.478  0.1332  0.3100  0.1404
 4185PW       W17489   2.484  11.199   2.542 -0.3275 -0.0659 -0.1561
 4185PW      WP17490   2.611  11.244   2.504 -0.1463 -0.2188  0.2301
 4185PW      WM17491   2.408  11.281   2.626 -0.0741  0.4894 -0.4405
 4186PW       W17492   8.405   3.372   5.089  0.1054  0.1229  0.2692
 4186PW      WP17493   8.423   3.466   5.191  0.0553  0.0144  0.3795
 4186PW      WM17494   8.481   3.437   4.991  0.0532  0.2705  0.3265
 4187PW       W17495   5.251   3.190  10.279 -0.4161 -0.3107 -0.1341
 4187PW      WP17496   5.266   3.274  10.390 -0.2510 -0.4631 -0.0383
 4187PW      WM17497   5.273   3.054  10.303 -0.2529 -0.2299  0.2166
 4188PW       W17498   3.550   4.550  11.242  0.2509  0.0028  0.4482
 4188PW      WP17499   3.585   4.611  11.363  0.2897  0.1694  0.3539
 4188PW      WM17500   3.471   4.457  11.174  0.1113  0.2070  0.3277
 4189PW       W17501   8.466   1.982  10.905 -0.4363 -0.0155  0.2349
 4189PW      WP17502   8.466   1.902  10.790 -0.5002 -0.2313  0.3831
 4189PW      WM17503   8.501   2.108  10.855  0.1241 -0.2622 -0.0454
 4190PW       W17504   9.109   3.716   0.379  0.1959 -0.2741  0.5307
 4190PW      WP17505   9.048   3.675   0.260  0.0512 -0.1859  0.5736
 4190PW      WM17506   9.182   3.628   0.297 -0.3035 -0.1415 -0.0947
 4191PW       W17507   1.852  10.460   0.754  0.5422  0.2157 -0.4223
 4191PW      WP17508   1.825  10.584   0.813 -0.2404  0.0491 -0.3688
 4191PW      WM17509   1.923  10.359   0.818 -0.3460 -0.1526  0.0763
 4192PW       W17510   7.757   3.992   9.394 -0.1082  0.0150  0.2278
 4192PW      WP17511   7.638   3.976   9.324 -0.1838  0.1032  0.3332
 4192PW      WM17512   7.780   3.875   9.322 -0.4890 -0.2579  0.5267
 4193PW       W17513   5.508   3.442   4.083  0.2597 -0.1550  0.0292
 4193PW      WP17514   5.523   3.538   4.184 -0.0857  0.0263 -0.0857
 4193PW      WM17515   5.391   3.373   4.116 -0.0104  0.3163  0.0988
 4194PW       W17516   9.800   8.807   8.957  0.1323 -0.3201  0.0203
 4194PW      WP17517   9.729   8.842   9.073  0.6520 -0.1775  0.3138
 4194PW      WM17518   9.729   8.878   8.860 -0.0591 -0.2636  0.1973
 4195PW       W17519   3.669   2.523  11.764  0.1260  0.0059  0.0313
 4195PW      WP17520   3.594   2.476  11.872  0.1328 -0.0279  0.0210
 4195PW      WM17521   3.792   2.588  11.746  0.2264 -0.1261  0.2329
 4196PW       W17522   2.678  11.790   4.702  0.4606  0.1522  0.4017
 4196PW      WP17523   2.804  11.832   4.747  0.5068 -0.0394  0.4549
 4196PW      WM17524   2.698  11.796   4.563  0.4692 -0.7089  0.3419
 4197PW       W17525   3.134  10.086   1.064 -0.2890  0.1235  0.2212
 4197PW      WP17526   3.176  10.214   1.103  0.1272 -0.0439  0.3453
 4197PW      WM17527   3.002  10.055   1.099 -0.4044  0.4468  0.0960
 4198PW       W17528  11.891  11.811  11.694  0.2041 -0.1569  0.0841
 4198PW      WP17529  11.926  11.814  11.559 -0.2707 -0.0382 -0.0455
 4198PW      WM17530  11.987  11.722  11.745  0.0738 -0.0988  0.4494
 4199PW       W17531   6.241   9.180   3.333  0.3787  0.3614 -0.5474
 4199PW      WP17532   6.106   9.194   3.301  0.1660 -0.1940  0.0111
 4199PW      WM17533   6.316   9.147   3.219  0.4939 -0.3028 -0.2982
 4200PW       W17534   5.067   9.836   9.981 -0.0481  0.0428 -0.0087
 4200PW      WP17535   5.089   9.957  10.047 -0.3451  0.2229 -0.2295
 4200PW      WM17536   4.948   9.839   9.908 -0.0089 -0.4111 -0.1062
 4201PW       W17537  10.966   5.570  11.687  0.1019  0.0867  0.2912
 4201PW      WP17538  11.081   5.593  11.764 -0.0658  0.2677  0.4938
 4201PW      WM17539  10.875   5.543  11.585  0.1051 -0.0455  0.3229
 4202PW       W17540  11.200   9.996  12.673 -0.1780 -0.2659  0.4233
 4202PW      WP17541  11.071  10.048  12.657  0.1431  0.6204  0.4176
 4202PW      WM17542  11.230   9.968  12.539  0.0650  0.2347  0.3591
 4203PW       W17543   1.114  10.599  12.529  0.1805 -0.1604 -0.3351
 4203PW      WP17544   0.993  10.647  12.478  0.0488 -0.0299  0.0833
 4203PW      WM17545   1.203  10.589  12.421  0.1131 -0.1495 -0.3922
 4204PW       W17546   2.422   8.245   4.453 -0.0159  0.1636  0.2639
 4204PW      WP17547   2.500   8.323   4.367 -0.3787  0.1487 -0.0974
 4204PW      WM17548   2.423   8.122   4.519 -0.0663 -0.0514 -0.1207
 4205PW       W17549   5.461   3.806   4.382  0.1142  0.0923 -0.0927
 4205PW      WP17550   5.577   3.883   4.381  0.0283  0.2210 -0.2321
 4205PW      WM17551   5.485   3.696   4.298  0.1545 -0.1762  0.2589
 4206PW       W17552   6.896   5.545   1.017 -0.2931  0.2678 -0.0323
 4206PW      WP17553   6.986   5.622   0.942 -0.1739 -0.2102 -0.4070
 4206PW      WM17554   6.791   5.509   0.931  0.0163  0.1273 -0.3678
 4207PW       W17555   9.109  11.389   1.767  0.1653 -0.2254  0.0842
 4207PW      WP17556   9.014  11.289   1.784 -0.0811 -0.0711 -0.3219
 4207PW      WM17557   9.056  11.447   1.651  0.1461 -0.0040  0.2001
 4208PW       W17558   9.076   1.711  11.053 -0.1282  0.0101  0.6335
 4208PW      WP17559   9.005   1.649  11.156 -0.1453 -0.7485  0.2045
 4208PW      WM17560   9.147   1.832  11.041 -0.1550  0.0088  0.4384
 4209PW       W17561   2.215   1.739   2.239  0.2298 -0.2275  0.0370
 4209PW      WP17562   2.158   1.698   2.361  0.2327  0.4991  0.3049
 4209PW      WM17563   2.192   1.872   2.204  0.2534 -0.2673 -0.1326
 4210PW       W17564   1.093   8.478   2.011  0.3091 -0.1325  0.2403
 4210PW      WP17565   1.092   8.570   2.117  0.0285  0.2958 -0.1157
 4210PW      WM17566   0.984   8.477   2.099  0.0573  0.4264 -0.0386
 4211PW       W17567   3.941   4.387  10.965 -0.0377  0.1994 -0.1643
 4211PW      WP17568   3.959   4.308  10.851  0.1240 -0.5135  0.3186
 4211PW      WM17569   3.977   4.296  11.066 -0.2823 -0.1625 -0.3909
 4212PW       W17570   5.524   6.723   3.993 -0.3978  0.2097  0.4995
 4212PW      WP17571   5.468   6.600   3.955  0.2752  0.0601 -0.1217
 4212PW      WM17572   5.615   6.640   4.058 -0.0699  0.2214  0.0745
 4213PW       W17573   1.896  11.538   4.918  0.6409  0.3122 -0.4044
 4213PW      WP17574   1.963  11.417   4.943 -0.2336 -0.0913  0.2599
 4213PW      WM17575   1.953  11.567   5.043 -0.0372  0.3270 -0.0761
 4214PW       W17576   8.243   6.115   3.014 -0.1693  0.2458 -0.2740
 4214PW      WP17577   8.163   6.223   3.051 -0.1467  0.1602  0.0396
 4214PW      WM17578   8.183   5.991   3.040  0.3905 -0.0439 -0.2735
 4215PW       W17579   7.916   8.711   3.708  0.0258  0.0720  0.0074
 4215PW      WP17580   8.027   8.659   3.641  0.4345  0.4455  0.3703
 4215PW      WM17581   7.788   8.729   3.654  0.0684  0.6891  0.0751
 4216PW       W17582   9.945   4.391   2.205  0.0207 -0.4625  0.4277
 4216PW      WP17583  10.078   4.363   2.175  0.1145  0.1539  0.1867
 4216PW      WM17584   9.849   4.490   2.175  0.4807 -0.0833  0.1298
 4217PW       W17585   2.150   1.666  11.374  0.2369  0.3109 -0.3493
 4217PW      WP17586   2.160   1.779  11.457 -0.1701  0.3118 -0.2892
 4217PW      WM17587   2.217   1.596  11.274  0.4983 -0.4784  0.3213
 4218PW       W17588   8.033   4.977   0.624  0.1360 -0.2868 -0.1413
 4218PW      WP17589   8.171   4.962   0.635  0.1073 -0.1699  0.5847
 4218PW      WM17590   7.933   4.999   0.528 -0.0460 -0.3380  0.0331
 4219PW       W17591   0.335   8.833   9.929  0.3793 -0.2309  0.1454
 4219PW      WP17592   0.267   8.723   9.876 -0.2965  0.0802  0.3176
 4219PW      WM17593   0.451   8.853   9.853  0.0448  0.3934 -0.2421
 4220PW       W17594   0.074   5.502   3.091 -0.0994 -0.1984  0.4715
 4220PW      WP17595   0.088   5.613   3.174  0.0822  0.2963 -0.1789
 4220PW      WM17596  -0.057   5.549   3.078  0.0741  0.2203  0.1249
 4221PW       W17597   7.651   7.907   0.546 -0.0455  0.0117  0.1920
 4221PW      WP17598   7.571   7.917   0.661  0.0049 -0.1113  0.2383
 4221PW      WM17599   7.647   8.044   0.517  0.0497 -0.0286 -0.0113
 4222PW       W17600   2.402   3.444   9.080  0.2275 -0.3175 -0.2007
 4222PW      WP17601   2.338   3.391   9.193  0.0055 -0.4029 -0.3637
 4222PW      WM17602   2.466   3.560   9.125 -0.1128 -0.4148  0.6393
 4223PW       W17603   8.441   3.679   8.307 -0.2461 -0.2699 -0.0250
 4223PW      WP17604   8.486   3.598   8.412  0.3088 -0.2411 -0.2232
 4223PW      WM17605   8.495   3.796   8.362 -0.1176 -0.3393 -0.0003
 4224PW       W17606   6.968   1.438   0.504  0.3224  0.0099  0.5187
 4224PW      WP17607   7.046   1.506   0.409 -0.1089 -0.1756  0.0018
 4224PW      WM17608   6.845   1.377   0.529  0.1633  0.0541 -0.0862
 4225PW       W17609   0.076   3.610   9.740  0.2139  0.2936  0.3829
 4225PW      WP17610   0.080   3.557   9.869 -0.0588 -0.1458  0.2218
 4225PW      WM17611   0.045   3.678   9.858 -0.5555 -0.6124  0.7700
 4226PW       W17612   0.480   6.294  13.189  0.0588  0.4167  0.1852
 4226PW      WP17613   0.417   6.324  13.067 -0.2837 -0.1074  0.2152
 4226PW      WM17614   0.385   6.293  13.291 -0.0120 -0.0277  0.1243
 4227PW       W17615   7.957   6.070  12.921 -0.2144  0.1540 -0.1080
 4227PW      WP17616   8.026   5.953  12.890  0.3462  0.4810 -0.1757
 4227PW      WM17617   7.821   6.075  12.953 -0.2326  0.1586 -0.1870
 4228PW       W17618  10.909  12.127   4.737 -0.0329  0.2008  0.2349
 4228PW      WP17619  10.883  12.220   4.635 -0.2120 -0.3757 -0.2689
 4228PW      WM17620  10.859  12.024   4.656  0.3226 -0.0430  0.3143
 4229PW       W17621   5.210   8.117   0.883  0.0214 -0.0963 -0.0108
 4229PW      WP17622   5.234   8.028   0.988  0.3247  0.1228  0.1135
 4229PW      WM17623   5.193   8.091   0.747  0.2294 -0.0640 -0.0450
 4230PW       W17624   0.269   7.491   9.726  0.4177  0.5087  0.5588
 4230PW      WP17625   0.385   7.412   9.729  0.3869  0.4403  0.1655
 4230PW      WM17626   0.287   7.400   9.832  0.5900 -0.1990 -0.0360
 4231PW       W17627   7.778   8.822  11.051  0.1958 -0.1526  0.1400
 4231PW      WP17628   7.765   8.699  10.986 -0.1822 -0.2643  0.4095
 4231PW      WM17629   7.818   8.941  10.989 -0.0069 -0.0053  0.2841
 4232PW       W17630   8.415   6.352   4.835  0.0309 -0.0125 -0.1922
 4232PW      WP17631   8.355   6.395   4.955 -0.3401 -0.0461 -0.3603
 4232PW      WM17632   8.347   6.301   4.724 -0.7609  0.2737  0.1180
 4233PW       W17633  11.642  11.679   2.411 -0.0405 -0.2208  0.5685
 4233PW      WP17634  11.756  11.753   2.446  0.1939 -0.3860  0.1801
 4233PW      WM17635  11.512  11.725   2.387  0.1807  0.0378 -0.2913
 4234PW       W17636   4.319   1.905   2.189 -0.2389  0.1309 -0.2873
 4234PW      WP17637   4.305   1.944   2.056  0.1382 -0.3849 -0.4946
 4234PW      WM17638   4.424   1.990   2.227 -0.0026 -0.2151 -0.1311
 4235PW       W17639   6.051  10.258  11.809 -0.0729 -0.1133 -0.4648
 4235PW      WP17640   5.955  10.167  11.855  0.1666 -0.2879 -0.2945
 4235PW      WM17641   6.098  10.341  11.911  0.2988 -0.4820 -0.3212
 4236PW       W17642   1.723   3.974  10.404 -0.1216  0.2418 -0.3553
 4236PW      WP17643   1.813   3.920  10.312  0.0275  0.5177 -0.3757
 4236PW      WM17644   1.731   3.838  10.372 -0.1712  0.2095 -0.2341
 4237PW       W17645   5.595   7.424  13.197 -0.3982  0.3419 -0.1426
 4237PW      WP17646   5.721   7.423  13.258 -0.2429  0.0723 -0.4538
 4237PW      WM17647   5.539   7.337  13.103  0.0918 -0.3370  0.1564
 4238PW       W17648   7.589   4.507   2.886 -0.1029 -0.0339 -0.0256
 4238PW      WP17649   7.673   4.474   2.994 -0.2489  0.3650  0.2208
 4238PW      WM17650   7.598   4.634   2.828 -0.3093  0.0409  0.1026
 4239PW       W17651  11.599   3.966   0.167 -0.1807 -0.2456  0.3355
 4239PW      WP17652  11.730   3.921   0.187  0.1340  0.2084 -0.4730
 4239PW      WM17653  11.544   3.864   0.088  0.2695 -0.2062 -0.0500
 4240PW       W17654   1.024   9.766   8.813 -0.0215  0.0553  0.7198
 4240PW      WP17655   1.091   9.680   8.725 -0.6429  0.2610 -0.0065
 4240PW      WM17656   1.160   9.802   8.805 -0.0344  0.0152  0.0461
 4241PW       W17657  10.711  11.541   3.602 -0.3511 -0.0562 -0.3332
 4241PW      WP17658  10.681  11.671   3.559  0.0948  0.0863 -0.2333
 4241PW      WM17659  10.599  11.471   3.555 -0.6581 -0.1277  0.4313
 4242PW       W17660   4.764   5.164   9.702 -0.0863 -0.4122 -0.0061
 4242PW      WP17661   4.850   5.238   9.620  0.0531 -0.3855  0.1593
 4242PW      WM17662   4.838   5.089   9.795 -0.4483 -0.3051  0.3832
 4243PW       W17663   7.284   6.256  11.793  0.0951  0.0391 -0.0414
 4243PW      WP17664   7.185   6.223  11.700  0.1688 -0.1280 -0.0610
 4243PW      WM17665   7.339   6.263  11.922  0.3391 -0.0790 -0.1359
 4244PW       W17666   6.134   0.851   0.703 -0.4470 -0.3438  0.1326
 4244PW      WP17667   6.256   0.787   0.727 -0.1744  0.0809 -0.0447
 4244PW      WM17668   6.130   0.990   0.719  0.8901 -0.1270 -0.6629
 4245PW       W17669   9.903   3.272  10.085 -0.5660 -0.3625 -0.0062
 4245PW      WP17670  10.031   3.216  10.089 -0.4781 -0.1583  0.2590
 4245PW      WM17671   9.887   3.226   9.954  0.1882  0.0885 -0.2891
 4246PW       W17672   7.085   9.083   3.503 -0.1267 -0.2479 -0.2988
 4246PW      WP17673   7.182   8.990   3.542 -0.3319 -0.3135  0.0828
 4246PW      WM17674   6.986   9.046   3.595 -0.2903  0.3421 -0.2191
 4247PW       W17675   5.323   3.859   3.094 -0.2845 -0.0745  0.0522
 4247PW      WP17676   5.252   3.976   3.062 -0.1839 -0.0712 -0.1697
 4247PW      WM17677   5.306   3.721   3.084  0.0280 -0.0991 -0.2156
 4248PW       W17678   4.835  11.318   9.165  0.1121 -0.2425  0.1362
 4248PW      WP17679   4.859  11.379   9.289 -0.5152  0.2193  0.0536
 4248PW      WM17680   4.846  11.416   9.066 -0.3955  0.3236  0.6016
 4249PW       W17681   6.023   9.339   0.938  0.0349  0.1501 -0.2743
 4249PW      WP17682   6.081   9.404   1.048 -0.4658  0.1848 -0.0157
 4249PW      WM17683   5.998   9.312   1.073  0.2270  0.3227 -0.2012
 4250PW       W17684   6.948   2.342  12.814 -0.0082  0.0802  0.1162
 4250PW      WP17685   6.974   2.308  12.947 -0.0938 -0.0414  0.1025
 4250PW      WM17686   6.819   2.362  12.865 -0.0576  0.1614 -0.0381
 4251PW       W17687   5.214   9.026   2.405  0.3036  0.1521 -0.3079
 4251PW      WP17688   5.182   9.162   2.390  0.3462  0.1795 -0.1577
 4251PW      WM17689   5.199   8.911   2.483  0.7069  0.3519  0.0864
 4252PW       W17690   4.602   2.502   3.565  0.1487  0.6565 -0.2707
 4252PW      WP17691   4.491   2.416   3.573  0.5788  0.0986  0.0698
 4252PW      WM17692   4.671   2.502   3.443  0.0222 -0.2425 -0.3810
 4253PW       W17693  10.587   5.466   2.127  0.4783  0.1012  0.4820
 4253PW      WP17694  10.641   5.504   2.003  0.3440 -0.3206  0.2863
 4253PW      WM17695  10.455   5.463   2.172  0.2425 -0.0815 -0.1589
 4254PW       W17696   6.724   8.773   1.036  0.3625  0.0787 -0.3276
 4254PW      WP17697   6.709   8.844   1.155 -0.3511 -0.2576 -0.1906
 4254PW      WM17698   6.762   8.670   1.123  0.1864  0.2233 -0.0749
 4255PW       W17699  11.164  11.112   0.463  0.0552 -0.0044  0.2023
 4255PW      WP17700  11.116  10.981   0.459  0.1291 -0.0378  0.3858
 4255PW      WM17701  11.228  11.108   0.338 -0.1092  0.1835  0.1084
 4256PW       W17702  10.837   6.671  10.546 -0.3461 -0.0180 -0.1685
 4256PW      WP17703  10.857   6.709  10.412  0.3629 -0.5787 -0.2543
 4256PW      WM17704  10.856   6.810  10.541 -0.7103  0.0300 -0.3507
 4257PW       W17705   9.122   2.239  11.100  0.0864 -0.5379 -0.0384
 4257PW      WP17706   8.984   2.254  11.088  0.1278  0.4062  0.2576
 4257PW      WM17707   9.224   2.289  11.183 -0.0368 -0.0641 -0.1595
 4258PW       W17708   4.989   9.642   0.284  0.0605  0.1291  0.1372
 4258PW      WP17709   4.907   9.655   0.396 -0.2460  0.0753 -0.0759
 4258PW      WM17710   4.871   9.708   0.249 -0.0817 -0.2512 -0.1294
 4259PW       W17711   6.211   4.611   8.783 -0.0973  0.0476 -0.4080
 4259PW      WP17712   6.280   4.521   8.865 -0.4694 -0.1309 -0.2784
 4259PW      WM17713   6.297   4.558   8.685  0.2745  0.2283 -0.1906
 4260PW       W17714   1.375  11.678   1.108  0.3506 -0.0890  0.4770
 4260PW      WP17715   1.336  11.664   1.241  0.0827  0.1376  0.4276
 4260PW      WM17716   1.455  11.742   1.012  0.2925 -0.5575  0.0949
 4261PW       W17717   5.651   8.989   9.059  0.2914  0.4136 -0.0009
 4261PW      WP17718   5.697   8.999   9.191  0.6424  0.1864 -0.1004
 4261PW      WM17719   5.701   9.076   8.962 -0.0657  0.2943 -0.3030
 4262PW       W17720   6.510  10.421   5.660 -0.3957 -0.0378 -0.1299
 4262PW      WP17721   6.550  10.354   5.543 -0.1629 -0.2670  0.0744
 4262PW      WM17722   6.399  10.501   5.685 -0.3728 -0.1739  0.4729
 4263PW       W17723   5.580   9.133   2.833  0.0369  0.2051  0.2485
 4263PW      WP17724   5.545   9.005   2.790 -0.7070  0.4848 -0.0739
 4263PW      WM17725   5.624   9.154   2.702 -0.2987  0.1424  0.1219
 4264PW       W17726   1.159   3.653   4.563 -0.5821 -0.1736  0.4002
 4264PW      WP17727   1.218   3.527   4.577  0.0727  0.1006  0.3340
 4264PW      WM17728   1.123   3.673   4.429 -0.3526 -0.2675  0.3214
 4265PW       W17729   9.654   3.210  10.984 -0.0029  0.0147  0.0928
 4265PW      WP17730   9.714   3.139  10.879 -0.2453 -0.1091  0.0344
 4265PW      WM17731   9.781   3.176  11.034  0.1121 -0.4907 -0.4789
 4266PW       W17732   1.026   3.880  11.711  0.0869  0.0481 -0.0196
 4266PW      WP17733   0.937   3.779  11.751 -0.1687  0.2349 -0.1035
 4266PW      WM17734   1.130   3.965  11.673  0.4682 -0.2754  0.2567
 4267PW       W17735   8.254   9.673   9.950 -0.0452 -0.1668  0.0357
 4267PW      WP17736   8.338   9.785   9.946  0.1657 -0.3188  0.1277
 4267PW      WM17737   8.125   9.708   9.907 -0.2403 -0.3759  0.4236
 4268PW       W17738   9.728   3.102   3.088  0.4085 -0.1848 -0.1069
 4268PW      WP17739   9.673   3.216   3.148 -0.2068 -0.4523 -0.1269
 4268PW      WM17740   9.817   3.069   2.985  0.4277  0.2245 -0.2283
 4269PW       W17741  11.220   4.443   4.895  0.2118 -0.2450  0.7102
 4269PW      WP17742  11.180   4.522   5.002 -0.9017  0.4614 -0.1189
 4269PW      WM17743  11.307   4.422   4.787  0.0153  0.3647  0.4139
 4270PW       W17744   0.033   0.384  10.824  0.3587  0.2118  0.0832
 4270PW      WP17745  -0.079   0.434  10.892  0.0092 -0.4146  0.0071
 4270PW      WM17746   0.078   0.414  10.695  0.1100  0.4797  0.0534
 4271PW       W17747   8.753  11.538   0.868 -0.1191  0.9341  0.5708
 4271PW      WP17748   8.618  11.501   0.867  0.0816  0.0840  0.5204
 4271PW      WM17749   8.745  11.484   0.738 -0.0128  0.1420  0.8633
 4272PW       W17750  11.665  10.541  11.227 -0.1258  0.1172  0.2121
 4272PW      WP17751  11.564  10.610  11.160 -0.2102  0.1231  0.3459
 4272PW      WM17752  11.710  10.608  11.341  0.0712  0.2132  0.0818
 4273PW       W17753   7.898   9.923  10.194  0.0724 -0.0600  0.1004
 4273PW      WP17754   8.006   9.974  10.267 -0.1021  0.0271  0.3030
 4273PW      WM17755   7.768   9.929  10.244  0.1444 -0.2504  0.3169
 4274PW       W17756   0.305   3.467  12.384  0.4122 -0.0892 -0.2505
 4274PW      WP17757   0.368   3.414  12.498  0.1608 -0.3956 -0.2465
 4274PW      WM17758   0.336   3.584  12.453 -0.2817 -0.2482  0.3954
 4275PW       W17759   0.565  10.544   9.413 -0.2716 -0.0562 -0.3890
 4275PW      WP17760   0.650  10.614   9.327 -0.3918  0.4458 -0.1187
 4275PW      WM17761   0.568  10.408   9.377  0.1082 -0.1121 -0.1725
 4276PW       W17762   8.082   4.539   1.572 -0.0164 -0.3812 -0.4444
 4276PW      WP17763   7.944   4.521   1.589 -0.0402  0.3364  0.6558
 4276PW      WM17764   8.047   4.404   1.565 -0.2866 -0.3541  0.1178
 4277PW       W17765  11.602   5.664  13.129  0.2953  0.1039  0.0699
 4277PW      WP17766  11.534   5.735  13.030  0.1016 -0.2851 -0.0899
 4277PW      WM17767  11.517   5.639  13.238  0.1438  0.0925 -0.0489
 4278PW       W17768   7.752   7.825  11.317 -0.3886  0.6252  0.3945
 4278PW      WP17769   7.787   7.738  11.421 -0.1640 -0.0742 -0.2234
 4278PW      WM17770   7.654   7.799  11.220  0.6053 -0.1552 -0.5334
 4279PW       W17771   3.557   4.402   9.145  0.3354 -0.5768  0.0013
 4279PW      WP17772   3.600   4.496   9.051  0.1489 -0.0182  0.4494
 4279PW      WM17773   3.696   4.393   9.129  0.3445 -0.5817  0.0783
 4280PW       W17774   3.126   9.403   4.959  0.3660 -0.1817  0.0265
 4280PW      WP17775   3.022   9.492   4.986  0.3516 -0.0952 -0.2951
 4280PW      WM17776   3.253   9.370   4.910  0.4092  0.2404 -0.1664
 4281PW       W17777   8.597   0.959   1.529  0.1479 -0.5357 -0.3314
 4281PW      WP17778   8.661   0.875   1.437  0.9306 -0.2565 -0.0757
 4281PW      WM17779   8.499   1.022   1.451  0.1417  0.1858  0.2150
 4282PW       W17780  11.240  10.687   2.376  0.0363 -0.1405  0.2527
 4282PW      WP17781  11.170  10.743   2.268 -0.0410  0.0309  0.3896
 4282PW      WM17782  11.359  10.614   2.360 -0.2396 -0.5435 -0.0686
 4283PW       W17783  10.915   5.991  11.979 -0.1461 -0.4180  0.0413
 4283PW      WP17784  10.817   5.984  11.879  0.0657  0.2475 -0.2436
 4283PW      WM17785  10.917   6.100  12.067  0.2137 -0.5530  0.2083
 4284PW       W17786   3.121   9.926  13.153 -0.2465  0.0611 -0.0417
 4284PW      WP17787   3.170  10.052  13.114  0.2379 -0.0770  0.0810
 4284PW      WM17788   3.020   9.837  13.191 -0.1767  0.0259  0.0655
 4285PW       W17789   5.924  11.213   0.433 -0.1825  0.5337 -0.0934
 4285PW      WP17790   5.790  11.223   0.393 -0.2012  0.1616 -0.1455
 4285PW      WM17791   6.063  11.209   0.447 -0.2120 -0.1677  0.2474
 4286PW       W17792   5.779   3.152  13.399 -0.0478 -0.2197 -0.0096
 4286PW      WP17793   5.717   3.241  13.311  0.5704  0.0823 -0.1626
 4286PW      WM17794   5.852   3.097  13.293  0.1036 -0.4255  0.1986
 4287PW       W17795   8.806  10.503   4.276  0.4624 -0.1985  0.3241
 4287PW      WP17796   8.817  10.422   4.390  0.0077  0.2734  0.7283
 4287PW      WM17797   8.779  10.430   4.160  0.1123  0.2824  0.0824
 4288PW       W17798   3.505   6.253   9.404 -0.0463 -0.2295 -0.4458
 4288PW      WP17799   3.506   6.355   9.308  0.1026  0.2937  0.0852
 4288PW      WM17800   3.450   6.169   9.501  0.0648  0.0227 -0.1568
 4289PW       W17801   9.558   8.227   0.909 -0.1333  0.1842  0.1504
 4289PW      WP17802   9.692   8.187   0.913 -0.2349 -0.2036 -0.0376
 4289PW      WM17803   9.447   8.165   0.968 -0.0320  0.0105  0.1629
 4290PW       W17804  12.093   9.404  12.935  0.4209 -0.0192  0.4576
 4290PW      WP17805  11.982   9.357  13.005  0.1952 -0.3411 -0.0837
 4290PW      WM17806  12.124   9.424  12.800 -0.5907  0.1572  0.2112
 4291PW       W17807   2.479   5.666   2.549  0.2014 -0.1822 -0.4436
 4291PW      WP17808   2.541   5.787   2.520  0.1794  0.0194  0.2526
 4291PW      WM17809   2.506   5.611   2.675 -0.2276  0.0057 -0.2578
 4292PW       W17810   6.191   2.038   2.473 -0.1614 -0.0387  0.1262
 4292PW      WP17811   6.290   1.999   2.382 -0.1382 -0.3787  0.2896
 4292PW      WM17812   6.285   2.104   2.552 -0.2259  0.1195  0.0725
 4293PW       W17813   2.512   9.322   9.601  0.5534  0.5394  0.2809
 4293PW      WP17814   2.602   9.215   9.596 -0.0369  0.0259 -0.1837
 4293PW      WM17815   2.402   9.377   9.669 -0.1299  0.0166 -0.3204
 4294PW       W17816   7.538  11.824  11.389  0.1258  0.2332 -0.1069
 4294PW      WP17817   7.562  11.692  11.426  0.5120  0.2756 -0.1883
 4294PW      WM17818   7.496  11.918  11.485  0.2571  0.2412 -0.0562
 4295PW       W17819   9.645  10.777   9.319  0.3065 -0.1090 -0.2927
 4295PW      WP17820   9.580  10.778   9.195 -0.5164  0.1712  0.1058
 4295PW      WM17821   9.509  10.804   9.339  0.3423 -0.3926  0.4785
 4296PW       W17822   7.109   7.977   4.548  0.3026 -0.0984 -0.0717
 4296PW      WP17823   7.109   8.045   4.670 -0.4131 -0.0549 -0.0794
 4296PW      WM17824   7.149   7.940   4.419  0.2822 -0.3255 -0.0150
 4297PW       W17825   4.056   9.055   2.156  0.1814 -0.0133 -0.2450
 4297PW      WP17826   4.122   9.163   2.217  0.1081 -0.1217  0.0319
 4297PW      WM17827   3.951   9.049   2.063 -0.2834  0.2537  0.2348
 4298PW       W17828   8.588   0.745   4.648  0.1069  0.5670  0.0115
 4298PW      WP17829   8.471   0.818   4.670 -0.4090 -0.2768  0.3092
 4298PW      WM17830   8.553   0.669   4.537 -0.1291  0.0386  0.4235
 4299PW       W17831   8.951   3.054   1.742 -0.3866  0.1603 -0.5607
 4299PW      WP17832   8.895   3.181   1.757 -0.0710  0.2474  0.0943
 4299PW      WM17833   8.928   2.917   1.722  0.2409 -0.0452 -0.0660
 4300PW       W17834   0.742   0.926   1.694 -0.0539 -0.6328  0.4823
 4300PW      WP17835   0.757   0.786   1.691 -0.0636 -0.6434 -0.4100
 4300PW      WM17836   0.697   1.026   1.780 -0.0423 -0.2660  0.0781
 4301PW       W17837   9.032   9.204   1.459  0.2250 -0.1163 -0.1760
 4301PW      WP17838   9.018   9.067   1.484 -0.5722 -0.0979 -0.3841
 4301PW      WM17839   9.114   9.250   1.563  0.1545 -0.0132 -0.1643
 4302PW       W17840   3.306   2.425  11.376 -0.2235 -0.1092 -0.3827
 4302PW      WP17841   3.362   2.552  11.393 -0.1646 -0.1711 -0.0683
 4302PW      WM17842   3.370   2.428  11.252 -0.1707  0.2430 -0.3520
 4303PW       W17843  11.897   1.068   5.267  0.2067  0.2391 -0.1811
 4303PW      WP17844  11.979   1.064   5.154  0.0547 -0.1689 -0.2853
 4303PW      WM17845  11.772   1.009   5.290  0.2231  0.1362 -0.3507
 4304PW       W17846   6.354   8.740   4.182 -0.1884 -0.3587  0.0749
 4304PW      WP17847   6.364   8.601   4.177  0.2242 -0.3621  0.5673
 4304PW      WM17848   6.362   8.726   4.321  0.2060 -0.2428  0.0692
 4305PW       W17849   9.546  10.059   1.268  0.0475 -0.0530  0.4131
 4305PW      WP17850   9.640   9.958   1.295  0.3696  0.0637 -0.1778
 4305PW      WM17851   9.497  10.013   1.145 -0.0949  0.6470  0.1860
 4306PW       W17852   2.286   0.726   4.285 -0.3640  0.0424 -0.1788
 4306PW      WP17853   2.219   0.790   4.390  0.0967  0.3566 -0.0613
 4306PW      WM17854   2.425   0.706   4.287 -0.3519  0.0838 -0.4201
 4307PW       W17855   2.868   2.953  10.772 -0.0889 -0.1302 -0.0751
 4307PW      WP17856   2.973   2.932  10.682  0.0645  0.0660  0.0542
 4307PW      WM17857   2.788   3.064  10.747  0.0579  0.1106  0.4572
 4308PW       W17858   2.801   2.789   0.525 -0.0038  0.3916 -0.1174
 4308PW      WP17859   2.747   2.887   0.440 -0.1094  0.2858 -0.1741
 4308PW      WM17860   2.883   2.763   0.635  0.1648  0.1548 -0.2943
 4309PW       W17861   4.899   3.282   5.314 -0.1030 -0.2282  0.2162
 4309PW      WP17862   4.768   3.327   5.292 -0.0883 -0.2982 -0.0429
 4309PW      WM17863   4.924   3.337   5.188 -0.4014 -0.0534  0.2274
 4310PW       W17864   2.397   4.098  12.096  0.2489  0.0013  0.4172
 4310PW      WP17865   2.424   4.008  12.200 -0.0442  0.0270  0.5208
 4310PW      WM17866   2.441   4.217  12.156  0.0537  0.3270 -0.0542
 4311PW       W17867   0.488  11.757   4.905  0.1094  0.2654 -0.1304
 4311PW      WP17868   0.448  11.643   4.975 -0.0259 -0.0328 -0.6653
 4311PW      WM17869   0.599  11.806   4.973  0.3891 -0.1891 -0.2392
 4312PW       W17870   6.512   6.837   4.677 -0.9708 -0.0909  0.2094
 4312PW      WP17871   6.560   6.918   4.573 -0.6329 -0.0005  0.4262
 4312PW      WM17872   6.429   6.732   4.637 -0.3088 -0.3426 -0.6570
 4313PW       W17873   9.456   4.372  12.175  0.5334  0.7321 -0.2745
 4313PW      WP17874   9.558   4.368  12.080  0.2490 -0.6363 -0.6424
 4313PW      WM17875   9.533   4.448  12.264  0.3990  0.1602  0.3849
 4314PW       W17876   2.871   7.909   4.638  0.0849  0.1995 -0.0990
 4314PW      WP17877   2.945   7.814   4.567  0.3098  0.4490 -0.2042
 4314PW      WM17878   2.978   7.948   4.719  0.0422  0.5351 -0.2002
 4315PW       W17879   2.361  10.780   3.275 -0.3225 -0.1516 -0.7356
 4315PW      WP17880   2.226  10.760   3.242 -0.3743  0.3103 -0.8482
 4315PW      WM17881   2.429  10.900   3.301  0.0150 -0.3816 -0.5250
 4316PW       W17882   3.902   0.915   3.047 -0.0471  0.0417  0.5013
 4316PW      WP17883   3.821   0.990   3.133 -0.1556  0.4799  0.0474
 4316PW      WM17884   4.015   0.833   3.046 -0.4178 -0.5359 -0.3371
 4317PW       W17885   9.036   5.528   1.063 -0.0241  0.1395  0.1625
 4317PW      WP17886   8.959   5.426   1.005 -0.3550  0.4767 -0.0182
 4317PW      WM17887   8.920   5.582   1.121  0.0140  0.2924  0.0991
 4318PW       W17888   4.724   2.067   0.042  0.4428  0.0125 -0.0570
 4318PW      WP17889   4.730   2.146  -0.073  0.2931  0.3409  0.1544
 4318PW      WM17890   4.721   1.933   0.082  0.2057 -0.0309 -0.2108
 4319PW       W17891   7.431   0.707  12.462 -0.3054 -0.0851  0.4233
 4319PW      WP17892   7.331   0.614  12.430 -0.3262  0.1976 -0.4651
 4319PW      WM17893   7.364   0.804  12.536  0.0788 -0.0546  0.7461
 4320PW       W17894  11.624   5.897   0.157 -0.2230  0.0574  0.2108
 4320PW      WP17895  11.621   5.949   0.287 -0.1296 -0.0920  0.2755
 4320PW      WM17896  11.761   5.875   0.178 -0.1024  0.3948 -0.1601
 4321PW       W17897   9.704  12.043  11.061 -0.2073 -0.1281  0.2908
 4321PW      WP17898   9.694  12.123  10.947 -0.3601 -0.1091  0.3168
 4321PW      WM17899   9.824  12.056  11.131 -0.0110  0.1766 -0.0856
 4322PW       W17900   6.216   9.561   3.703  0.7660 -0.1152 -0.4680
 4322PW      WP17901   6.173   9.562   3.569 -0.0226  0.3631 -0.2414
 4322PW      WM17902   6.286   9.677   3.738 -0.2561  0.3979  0.0941
 4323PW       W17903   3.127  10.923  11.181  0.4358 -0.3728 -0.0938
 4323PW      WP17904   3.038  10.816  11.199 -0.3089  0.2393  0.1474
 4323PW      WM17905   3.186  11.049  11.184 -0.0328 -0.1434 -0.0608
 4324PW       W17906   3.431   9.911  10.707 -0.2050  0.3229  0.2914
 4324PW      WP17907   3.303   9.967  10.716 -0.4427 -0.2399  0.7259
 4324PW      WM17908   3.411   9.779  10.750  0.0726  0.0963 -0.2246
 4325PW       W17909  10.652   4.570   2.529  0.3469 -0.1717 -0.0870
 4325PW      WP17910  10.684   4.584   2.394  0.0960 -0.3409 -0.1671
 4325PW      WM17911  10.550   4.603   2.619  0.4112 -0.3778  0.0657
 4326PW       W17912   2.644   0.637   9.635  0.3932 -0.2030  0.0483
 4326PW      WP17913   2.751   0.587   9.711  0.3136 -0.0436  0.2699
 4326PW      WM17914   2.716   0.706   9.734  0.0015  0.1634  0.0923
 4327PW       W17915   1.566   1.609  13.018 -0.1063  0.1807  0.5100
 4327PW      WP17916   1.658   1.703  13.068  0.0012  0.5559 -0.3089
 4327PW      WM17917   1.512   1.516  12.930  0.3200  0.3032  0.0973
 4328PW       W17918   8.245   1.028   3.653  0.2867  0.1333  0.3930
 4328PW      WP17919   8.339   0.924   3.648 -0.1618 -0.2883  0.3520
 4328PW      WM17920   8.301   1.126   3.568  0.1344  0.0054  0.1389
 4329PW       W17921   5.765  10.467   3.516 -0.2767 -0.0181  0.0401
 4329PW      WP17922   5.689  10.557   3.440  0.1120  0.2436 -0.0582
 4329PW      WM17923   5.667  10.534   3.590 -0.4123  0.2369 -0.3481
 4330PW       W17924   6.878  11.822   0.970  0.2688  0.2923  0.2356
 4330PW      WP17925   6.794  11.827   1.082  0.2657  0.2317  0.2358
 4330PW      WM17926   6.827  11.929   1.046 -0.0146  0.4254 -0.1276
 4331PW       W17927  12.060   6.837   0.182 -0.3229  0.0639  0.1941
 4331PW      WP17928  11.971   6.902   0.268 -0.1987  0.0330  0.3476
 4331PW      WM17929  12.073   6.758   0.066 -0.4408  0.4222 -0.0717
 4332PW       W17930   5.570   1.497   3.536  0.4125 -0.1987  0.2047
 4332PW      WP17931   5.639   1.417   3.628  0.0004 -0.4360  0.3168
 4332PW      WM17932   5.446   1.491   3.473  0.5729  0.0780 -0.1578
 4333PW       W17933   6.984   8.622  10.778 -0.2018  0.0833 -0.2782
 4333PW      WP17934   6.965   8.485  10.759 -0.4308  0.0825 -0.0630
 4333PW      WM17935   7.122   8.647  10.767 -0.0910 -0.3743 -0.0625
 4334PW       W17936   7.708   3.130   9.328  0.0698 -0.1132  0.5911
 4334PW      WP17937   7.828   3.111   9.398  0.1524 -0.1133  0.4512
 4334PW      WM17938   7.663   3.011   9.386 -0.0240 -0.4275 -0.0856
 4335PW       W17939   2.210   3.503   4.164  0.0575  0.4941 -0.4588
 4335PW      WP17940   2.194   3.388   4.085  0.4656  0.4062 -0.4277
 4335PW      WM17941   2.329   3.534   4.232 -0.2823 -0.0680  0.4921
 4336PW       W17942   2.402   5.567  11.642  0.0098  0.2883  0.4858
 4336PW      WP17943   2.506   5.607  11.727  0.7703  0.2622 -0.3656
 4336PW      WM17944   2.295   5.640  11.591  0.2167  0.2861  0.0258
 4337PW       W17945   8.138   6.007   8.986 -0.1820 -0.2573 -0.1794
 4337PW      WP17946   8.184   6.061   8.865 -0.1741  0.3935  0.0930
 4337PW      WM17947   8.092   5.877   8.959 -0.3299 -0.2068 -0.1742
 4338PW       W17948   5.611  11.719  11.586  0.0779  0.3822  0.3436
 4338PW      WP17949   5.549  11.834  11.534  0.0878  0.2579  0.0493
 4338PW      WM17950   5.502  11.710  11.674 -0.2495  0.3170 -0.0579
 4339PW       W17951   9.629   8.542   4.725 -0.1336  0.3202 -0.2024
 4339PW      WP17952   9.755   8.595   4.695 -0.2102  0.5274 -0.1695
 4339PW      WM17953   9.620   8.449   4.621 -0.0788 -0.3251  0.3352
 4340PW       W17954   3.065   4.085   1.882 -0.0373  0.1797 -0.1813
 4340PW      WP17955   2.952   4.144   1.824 -0.0117  0.4518  0.0370
 4340PW      WM17956   3.093   4.116   2.015 -0.0871  0.3421 -0.2074
 4341PW       W17957   8.565   3.164   5.820  0.1691 -0.0350  0.4461
 4341PW      WP17958   8.612   3.068   5.730  0.2036  0.4556 -0.0887
 4341PW      WM17959   8.666   3.246   5.873  0.1770  0.3993 -0.1800
 4342PW       W17960   0.856   5.203  10.506  0.0436  0.0367  0.2845
 4342PW      WP17961   0.993   5.194  10.479  0.0104  0.3149 -0.0043
 4342PW      WM17962   0.843   5.073  10.456  0.0239  0.2319 -0.2412
 4343PW       W17963   5.904   6.331   9.251 -0.1363 -0.5212  0.1713
 4343PW      WP17964   5.924   6.195   9.223  0.1270 -0.5128  0.3031
 4343PW      WM17965   6.042   6.352   9.260 -0.1660 -0.2848  0.1017
 4344PW       W17966   1.750   3.332   1.725 -0.0958 -0.3364 -0.0348
 4344PW      WP17967   1.858   3.298   1.642 -0.2604 -0.3101 -0.2662
 4344PW      WM17968   1.768   3.346   1.863 -0.4976 -0.1341  0.0054
 4345PW       W17969   7.795   7.896  10.565 -0.3482 -0.2808  0.0189
 4345PW      WP17970   7.712   7.864  10.673  0.1597 -0.8045  0.2847
 4345PW      WM17971   7.924   7.940  10.533 -0.0781 -0.8537  0.2409
 4346PW       W17972   5.412   9.635   0.037 -0.1919 -0.1353 -0.2082
 4346PW      WP17973   5.303   9.687   0.108  0.0151 -0.5299  0.4407
 4346PW      WM17974   5.433   9.501   0.070 -0.0882 -0.1533 -0.3432
 4347PW       W17975   7.162   3.490  10.223 -0.5711 -0.3614  0.1678
 4347PW      WP17976   7.125   3.590  10.132 -0.1761 -0.3049  0.0610
 4347PW      WM17977   7.202   3.472  10.356  0.2424 -0.1475 -0.0193
 4348PW       W17978  11.376   9.492   3.215 -0.1924 -0.2046 -0.5901
 4348PW      WP17979  11.422   9.387   3.296 -0.6458  0.0017 -0.0254
 4348PW      WM17980  11.243   9.491   3.170 -0.3539  0.0107 -0.1467
 4349PW       W17981   7.587   5.163   0.585  0.1439  0.2235  0.1913
 4349PW      WP17982   7.711   5.100   0.567 -0.0242 -0.0373 -0.1187
 4349PW      WM17983   7.542   5.216   0.707  0.0933 -0.0091  0.2777
 4350PW       W17984   7.359   6.676  12.099 -0.2878  0.0326  0.0433
 4350PW      WP17985   7.391   6.809  12.069 -0.1560  0.0203  0.1230
 4350PW      WM17986   7.418   6.549  12.093 -0.5644 -0.1059  0.1692
 4351PW       W17987   0.733   5.222   4.887 -0.0245 -0.1565 -0.6949
 4351PW      WP17988   0.791   5.140   4.985 -0.5868 -0.0302 -0.2257
 4351PW      WM17989   0.734   5.082   4.885  0.2221 -0.2195  0.3873
 4352PW       W17990   3.129   8.565  -0.005  0.0695  0.5482 -0.3141
 4352PW      WP17991   3.212   8.620  -0.103  0.1352  0.3389 -0.3792
 4352PW      WM17992   3.096   8.614   0.122  0.2762 -0.0886  0.0056
 4353PW       W17993  11.165   9.873   1.348 -0.3757  0.4024  0.2585
 4353PW      WP17994  11.097   9.762   1.401 -0.1188  0.1228  0.0232
 4353PW      WM17995  11.231   9.989   1.388  0.0819  0.1822  0.1843
 4354PW       W17996   9.921   0.396  10.960  0.4773  0.4123  0.0395
 4354PW      WP17997   9.863   0.511  10.905  0.3722  0.1977 -0.3177
 4354PW      WM17998   9.883   0.350  11.087 -0.3526 -0.0656 -0.3419
 4355PW       W17999   7.243  11.550   3.638  0.0559 -0.0229  0.0974
 4355PW      WP18000   7.309  11.442   3.577 -0.0456 -0.0000 -0.0564
 4355PW      WM18001   7.323  11.590   3.745 -0.2322  0.5802  0.1067
 4356PW       W18002   9.288   1.283  10.185 -0.0720  0.5801 -0.2227
 4356PW      WP18003   9.207   1.373  10.256 -0.5544 -0.0192  0.0272
 4356PW      WM18004   9.401   1.221  10.131  0.1047  0.4787  0.2380
 4357PW       W18005   3.114   1.188  10.209  0.0761  0.2258  0.5610
 4357PW      WP18006   3.246   1.203  10.252  0.2051  0.0132  0.2582
 4357PW      WM18007   3.076   1.217  10.078  0.0536 -0.3248  0.4314
 4358PW       W18008   9.748   0.832   8.279  0.5130 -0.1517 -0.0814
 4358PW      WP18009   9.834   0.725   8.251  0.2987 -0.3801  0.1048
 4358PW      WM18010   9.831   0.849   8.390  0.5254 -0.4408 -0.0409
 4359PW       W18011   2.864  11.147  12.419 -0.0320 -0.1857  0.2217
 4359PW      WP18012   2.992  11.127  12.365  0.0305 -0.0358  0.3134
 4359PW      WM18013   2.915  11.137  12.549  0.4927 -0.4134  0.0143
 4360PW       W18014   3.276   4.380   2.281 -0.4879 -0.3707 -0.0811
 4360PW      WP18015   3.342   4.263   2.240 -0.0233 -0.1740  0.0750
 4360PW      WM18016   3.313   4.352   2.413 -0.2254 -0.0402 -0.0795
 4361PW       W18017   3.670   1.255  11.023 -0.1767 -0.1312  0.1316
 4361PW      WP18018   3.797   1.313  11.012 -0.3377  0.1461 -0.5349
 4361PW      WM18019   3.641   1.248  10.886 -0.2530 -0.4928  0.1626
 4362PW       W18020   2.184   1.288  11.714  0.4212  0.0890  0.4020
 4362PW      WP18021   2.122   1.393  11.783  0.2253  0.1508  0.1414
 4362PW      WM18022   2.210   1.175  11.792  0.2514 -0.0103  0.3196
 4363PW       W18023   8.361   5.858  11.931  0.2315 -0.2915  0.1678
 4363PW      WP18024   8.257   5.800  11.859 -0.1590  0.2061  0.3024
 4363PW      WM18025   8.257   5.863  12.024  0.0538 -0.3550 -0.0260
 4364PW       W18026   0.419  10.937   8.839 -0.5942 -0.2369 -0.4978
 4364PW      WP18027   0.400  11.065   8.784 -0.3355  0.0218 -0.0143
 4364PW      WM18028   0.543  10.882   8.805 -0.4700 -0.2533 -0.0500
 4365PW       W18029  11.220   0.232  13.181  0.1699  0.1707 -0.0765
 4365PW      WP18030  11.093   0.291  13.182 -0.1403 -0.4416  0.2541
 4365PW      WM18031  11.290   0.185  13.293 -0.4227  0.6058  0.5123
 4366PW       W18032   2.649   0.664   4.716 -0.0064 -0.4685  0.0630
 4366PW      WP18033   2.729   0.643   4.830  0.4618 -0.2038 -0.2026
 4366PW      WM18034   2.517   0.683   4.758  0.0679 -0.1521  0.1690
 4367PW       W18035  10.118   3.600   1.861  0.1052  0.3056 -0.5284
 4367PW      WP18036  10.203   3.570   1.968 -0.0851  0.0715 -0.4380
 4367PW      WM18037  10.092   3.733   1.826 -0.3381  0.4496  0.2238
 4368PW       W18038   8.366  12.095   2.129 -0.1195  0.1271 -0.2096
 4368PW      WP18039   8.358  12.008   2.239  0.0545  0.4336  0.0556
 4368PW      WM18040   8.265  12.166   2.194 -0.0816  0.2803 -0.3149
 4369PW       W18041   6.202   2.654   0.235 -0.2461  0.0078  0.2395
 4369PW      WP18042   6.081   2.588   0.211 -0.2522  0.2390 -0.4782
 4369PW      WM18043   6.074   2.596   0.236 -0.1509 -0.2087  0.3002
 4370PW       W18044   2.721  11.748   9.458 -0.1655 -0.2085  0.1054
 4370PW      WP18045   2.855  11.786   9.469 -0.1872 -0.0101 -0.2531
 4370PW      WM18046   2.619  11.784   9.369 -0.2592  0.4493  0.4472
 4371PW       W18047  10.931   5.333   9.925 -0.0167 -0.0787  0.2135
 4371PW      WP18048  11.043   5.265   9.973  0.1091  0.0566  0.1132
 4371PW      WM18049  10.945   5.290   9.793 -0.3219 -0.4245  0.2855
 4372PW       W18050  11.678   4.983  11.880 -0.1245 -0.1981  0.0318
 4372PW      WP18051  11.798   4.976  11.952 -0.1937 -0.2368  0.1425
 4372PW      WM18052  11.636   5.116  11.882  0.5596  0.0399 -0.1403
 4373PW       W18053   7.322   6.445   9.556  0.1392 -0.3727 -0.0088
 4373PW      WP18054   7.297   6.381   9.678 -0.1003 -0.5823 -0.1634
 4373PW      WM18055   7.388   6.363   9.464  0.3164 -0.4977  0.2276
 4374PW       W18056   9.007   7.354  10.815 -0.0658  0.1155 -0.0069
 4374PW      WP18057   9.080   7.373  10.934 -0.0955  0.2351 -0.0073
 4374PW      WM18058   8.894   7.314  10.743 -0.4452  0.5529  0.3187
 4375PW       W18059   3.108   0.852  12.136  0.1443 -0.0146 -0.5718
 4375PW      WP18060   3.042   0.831  12.258  0.0917  0.1262 -0.5759
 4375PW      WM18061   3.237   0.903  12.149  0.0122  0.2018  0.0946
 4376PW       W18062   8.131   2.041   5.635 -0.1130 -0.3297  0.0286
 4376PW      WP18063   8.098   2.152   5.556  0.3826 -0.1311  0.0818
 4376PW      WM18064   7.997   2.011   5.659 -0.4115  0.6352 -0.2085
 4377PW       W18065   7.096  10.645  10.315  0.5374  0.1760  0.2651
 4377PW      WP18066   7.032  10.686  10.433 -0.1216 -0.1382  0.0393
 4377PW      WM18067   7.153  10.733  10.222 -0.0965  0.5873  0.2329
 4378PW       W18068   3.026   2.123  11.140 -0.2731  0.0319  0.2804
 4378PW      WP18069   3.104   2.234  11.177 -0.1253 -0.0103  0.0981
 4378PW      WM18070   2.901   2.186  11.146 -0.0246  0.5706  0.1755
 4379PW       W18071   6.208   4.607   0.537 -0.3770  0.2734 -0.1211
 4379PW      WP18072   6.131   4.659   0.432 -0.0607  0.1107 -0.4438
 4379PW      WM18073   6.347   4.619   0.530 -0.3569 -0.0496 -0.4083
 4380PW       W18074   3.425   9.882   5.744 -0.1440  0.2243  0.3030
 4380PW      WP18075   3.287   9.908   5.735 -0.1435  0.1594  0.0815
 4380PW      WM18076   3.501   9.997   5.767  0.4174 -0.0928  0.1335
 4381PW       W18077   9.621  12.123   8.719 -0.0610  0.0722  0.1313
 4381PW      WP18078   9.487  12.088   8.743  0.0099 -0.4629 -0.1742
 4381PW      WM18079   9.679  12.186   8.829  0.2233 -0.2540  0.1774
 4382PW       W18080   5.831   4.179  12.578  0.1541 -0.0369 -0.1611
 4382PW      WP18081   5.961   4.185  12.631  0.2928  0.2520 -0.5164
 4382PW      WM18082   5.744   4.249  12.494 -0.4793 -0.5199  0.0482
 4383PW       W18083   4.400   1.852   9.180 -0.1753  0.4119 -0.2108
 4383PW      WP18084   4.504   1.897   9.262 -0.2769  0.0455  0.1343
 4383PW      WM18085   4.338   1.950   9.102 -0.0599  0.2800 -0.4776
 4384PW       W18086   8.345   4.363   4.392 -0.0359  0.0745  0.0334
 4384PW      WP18087   8.329   4.444   4.505  0.3735  0.1131  0.0728
 4384PW      WM18088   8.265   4.374   4.278 -0.1155 -0.5177  0.0144
 4385PW       W18089   2.805   4.653   0.949  0.4785  0.2417  0.1245
 4385PW      WP18090   2.849   4.760   1.029 -0.0681  0.3468  0.3068
 4385PW      WM18091   2.903   4.553   0.953  0.2397  0.0046  0.1482
 4386PW       W18092   9.359   7.037  11.535  0.8070  0.0741 -0.0967
 4386PW      WP18093   9.248   7.030  11.450  0.3008 -0.2506  0.5484
 4386PW      WM18094   9.422   7.127  11.621  0.7275 -0.0154  0.0566
 4387PW       W18095  11.172   2.646   9.211  0.3477  0.3692  0.2378
 4387PW      WP18096  11.191   2.562   9.100 -0.0825  0.2973  0.2099
 4387PW      WM18097  11.092   2.757   9.239 -0.4106 -0.1063  0.0945
 4388PW       W18098   3.565   8.778   2.206 -0.2871  0.1369 -0.1952
 4388PW      WP18099   3.651   8.677   2.251 -0.3322  0.0183 -0.3702
 4388PW      WM18100   3.546   8.824   2.075 -0.1142  0.3304 -0.1556
 4389PW       W18101   5.733   3.049   9.249  0.3743  0.0484 -0.1057
 4389PW      WP18102   5.641   2.981   9.330 -0.0826  0.4602 -0.2578
 4389PW      WM18103   5.731   2.981   9.126 -0.0203  0.2910 -0.2431
 4390PW       W18104  11.322  10.781   9.584 -0.0066  0.2898  0.3108
 4390PW      WP18105  11.326  10.674   9.675  0.1322 -0.0617 -0.0922
 4390PW      WM18106  11.209  10.861   9.565 -0.0276  0.1945  0.0097
 4391PW       W18107   0.085   4.528  10.774 -0.2395 -0.9412  0.2281
 4391PW      WP18108   0.077   4.528  10.914  0.3522  0.3441  0.3345
 4391PW      WM18109   0.065   4.528  10.635  0.1612  0.2944  0.1054
 4392PW       W18110   2.999   8.390   0.897 -0.2604  0.0366 -0.1076
 4392PW      WP18111   2.898   8.341   0.813 -0.2922  0.0477 -0.0757
 4392PW      WM18112   3.028   8.330   0.773 -0.1180 -0.4129  0.1321
 4393PW       W18113   0.415   6.832  12.826 -0.2084  0.0372 -0.6443
 4393PW      WP18114   0.506   6.787  12.923 -0.4450  0.2072 -0.3306
 4393PW      WM18115   0.317   6.923  12.867  0.0333 -0.0878  0.3392
 4394PW       W18116   2.151   4.102  10.818  0.2158  0.2208  0.0783
 4394PW      WP18117   2.061   4.205  10.789 -0.0852  0.0656  0.4210
 4394PW      WM18118   2.269   4.043  10.771  0.0991  0.0656 -0.0270
 4395PW       W18119   4.841   8.922   2.773 -0.2398  0.1610 -0.1104
 4395PW      WP18120   4.768   9.034   2.729  0.0068  0.1505 -0.5836
 4395PW      WM18121   4.975   8.894   2.743 -0.2860  0.1371 -0.3030
 4396PW       W18122   0.295   7.417   9.084  0.1891 -0.0163 -0.0454
 4396PW      WP18123   0.198   7.376   8.992  0.2729  0.2267 -0.2482
 4396PW      WM18124   0.395   7.392   8.989  0.3825  0.2690  0.0744
 4397PW       W18125   8.165   4.330   5.665 -0.1638 -0.5026  0.0087
 4397PW      WP18126   8.283   4.261   5.695  0.1287 -0.1263 -0.2384
 4397PW      WM18127   8.208   4.458   5.631  0.2993 -0.5898  0.2286
 4398PW       W18128   5.850   2.056   4.385 -0.4923 -0.1660 -0.2843
 4398PW      WP18129   5.783   1.945   4.331 -0.4888 -0.4017  0.1653
 4398PW      WM18130   5.918   2.177   4.403  0.1819 -0.5817  0.2327
 4399PW       W18131   4.486   3.832  11.373  0.3267  0.1126 -0.2795
 4399PW      WP18132   4.584   3.924  11.332  0.4625  0.2062  0.2259
 4399PW      WM18133   4.568   3.755  11.457  0.1760  0.1001 -0.1424
 4400PW       W18134   4.675   4.479  10.040 -0.1378 -0.1989  0.2751
 4400PW      WP18135   4.596   4.510   9.928 -0.1671 -0.0019  0.3485
 4400PW      WM18136   4.793   4.483  10.115  0.0638 -0.6456  0.0057
 4401PW       W18137   0.274   4.056  10.997  0.3558 -0.1264 -0.6728
 4401PW      WP18138   0.369   4.058  11.100 -0.3979 -0.4699  0.0902
 4401PW      WM18139   0.204   4.176  11.015 -0.1309 -0.4467 -0.2679
 4402PW       W18140   1.979  10.875   1.071  0.1635 -0.2533  0.0015
 4402PW      WP18141   1.902  10.992   1.063  0.2360 -0.2301 -0.5147
 4402PW      WM18142   2.015  10.841   1.202  0.1306 -0.2494  0.0115
 4403PW       W18143   0.765   6.120  10.981 -0.2257  0.1668  0.3839
 4403PW      WP18144   0.652   6.047  10.941 -0.0817  0.0103  0.2542
 4403PW      WM18145   0.868   6.059  11.055 -0.4178 -0.1820  0.3749
 4404PW       W18146   7.206   7.120  13.074  0.2043  0.2631 -0.1862
 4404PW      WP18147   7.288   7.006  13.075  0.1905  0.2539 -0.0366
 4404PW      WM18148   7.333   7.173  13.098  0.2141  0.0457  0.2891
 4405PW       W18149  10.854   6.926   2.205 -0.0920 -0.6527  0.1141
 4405PW      WP18150  10.979   6.983   2.177 -0.3731 -0.0676 -0.0414
 4405PW      WM18151  10.795   7.052   2.189  0.6281 -0.3031  0.0102
 4406PW       W18152   3.025   0.672   2.833 -0.0787  0.0309 -0.1894
 4406PW      WP18153   2.984   0.754   2.939  0.1589  0.1945 -0.2208
 4406PW      WM18154   3.165   0.666   2.838 -0.0970 -0.6122  0.1031
 4407PW       W18155  10.038   3.014  10.643 -0.0905 -0.2681  0.1333
 4407PW      WP18156  10.049   2.932  10.530  0.4369 -0.2489  0.1576
 4407PW      WM18157   9.926   3.091  10.674 -0.0469  0.0035 -0.3345
 4408PW       W18158   3.889   1.770   5.583 -0.1527 -0.1195  0.0605
 4408PW      WP18159   3.816   1.654   5.613 -0.2002 -0.1345 -0.1087
 4408PW      WM18160   3.755   1.734   5.601 -0.1692  0.0147  0.2266
 4409PW       W18161   4.815   4.910   1.494 -0.2021  0.0080  0.1701
 4409PW      WP18162   4.680   4.914   1.457 -0.0656 -0.5027 -0.4768
 4409PW      WM18163   4.796   5.041   1.447  0.4971 -0.0699 -0.4338
 4410PW       W18164   6.884   3.039  10.578  0.0992  0.5681 -0.3147
 4410PW      WP18165   6.995   2.954  10.592 -0.0658  0.3891 -0.0397
 4410PW      WM18166   6.991   3.102  10.644  0.0219  0.1472  0.2489
 4411PW       W18167   9.933   5.266  11.475  0.9648 -0.4263  0.1432
 4411PW      WP18168   9.990   5.171  11.389  0.4607 -0.7066  0.0995
 4411PW      WM18169   9.896   5.237  11.607  0.0239  0.4002  0.1236
 4412PW       W18170   4.442   4.693  13.300  0.0441 -0.2988  0.2195
 4412PW      WP18171   4.536   4.589  13.308  0.2277 -0.1760 -0.2074
 4412PW      WM18172   4.395   4.697  13.168 -0.0228 -0.2672  0.2437
 4413PW       W18173   4.684   2.846   1.395 -0.0841 -0.0081  0.4656
 4413PW      WP18174   4.644   2.872   1.527 -0.6107 -0.1136  0.3379
 4413PW      WM18175   4.546   2.826   1.376 -0.1832  0.6357  0.3676
 4414PW       W18176  11.627   5.941   0.653 -0.3824 -0.2690  0.0064
 4414PW      WP18177  11.753   5.968   0.597 -0.2157  0.1480  0.5320
 4414PW      WM18178  11.630   5.984   0.520  0.0612 -0.0751  0.0685
 4415PW       W18179   1.194   8.313   3.567  0.0733  0.4659 -0.2320
 4415PW      WP18180   1.242   8.413   3.482  0.1794  0.2479 -0.4366
 4415PW      WM18181   1.131   8.277   3.687  0.1467 -0.1100 -0.3493
 4416PW       W18182   1.699   7.404   2.557  0.2168  0.1151  0.0944
 4416PW      WP18183   1.785   7.367   2.453  0.0751  0.4945 -0.1699
 4416PW      WM18184   1.785   7.475   2.642 -0.1947  0.7425  0.0207
 4417PW       W18185   6.095  10.872   2.745 -0.0472  0.1445  0.2676
 4417PW      WP18186   6.207  10.877   2.662 -0.2668  0.9133 -0.0330
 4417PW      WM18187   5.975  10.854   2.815 -0.4018  0.3717 -0.2471
 4418PW       W18188   6.632   0.193  12.071  0.4305 -0.0144 -0.2023
 4418PW      WP18189   6.629   0.254  12.197 -0.3405 -0.2495 -0.0829
 4418PW      WM18190   6.623   0.229  11.936  0.1518 -0.1901 -0.2338
 4419PW       W18191   1.989   6.255   8.266  0.0409  0.2028  0.4906
 4419PW      WP18192   2.053   6.131   8.277 -0.0326  0.1205  0.0769
 4419PW      WM18193   2.103   6.311   8.326  0.4141  0.1758 -0.1465
 4420PW       W18194   1.149   8.505   9.818  0.4580  0.3918  0.0130
 4420PW      WP18195   1.094   8.447   9.703 -0.0063  0.1815  0.3289
 4420PW      WM18196   1.078   8.561   9.710  0.0388  0.0316  0.0911
 4421PW       W18197  12.000   7.238   2.464 -0.5711 -0.0881  0.1515
 4421PW      WP18198  12.014   7.193   2.595 -0.1222  0.1220  0.1840
 4421PW      WM18199  11.933   7.166   2.364 -0.6329 -0.0722  0.1814
 4422PW       W18200  10.708  11.993   5.146 -0.3434  0.1570 -0.0259
 4422PW      WP18201  10.772  12.097   5.077  0.1563  0.0245  0.2157
 4422PW      WM18202  10.577  12.029   5.181 -0.3521  0.0693  0.0357
 4423PW       W18203   2.829   9.980  10.567  0.3624  0.4890 -0.0048
 4423PW      WP18204   2.705  10.038  10.595  0.1003 -0.0157 -0.0474
 4423PW      WM18205   2.946  10.053  10.587  0.0809  0.9083  0.2022
 4424PW       W18206  10.287  11.262   1.536  0.4473 -0.2708  0.0372
 4424PW      WP18207  10.325  11.384   1.592  0.1664 -0.4001  0.5354
 4424PW      WM18208  10.217  11.165   1.608  0.1957 -0.0590  0.0837
 4425PW       W18209   3.929   2.720   5.316 -0.1111  0.5224 -0.1244
 4425PW      WP18210   3.941   2.645   5.433 -0.4461  0.0663 -0.3637
 4425PW      WM18211   4.003   2.721   5.197 -0.1071  0.0565 -0.1349
 4426PW       W18212   7.359   9.625   0.375  0.2338  0.3759 -0.1715
 4426PW      WP18213   7.241   9.586   0.438  0.5037 -0.0952  0.0648
 4426PW      WM18214   7.424   9.504   0.350 -0.1415  0.2165 -0.4193
 4427PW       W18215  10.864  11.954   1.198  0.2209  0.4537 -0.3364
 4427PW      WP18216  10.804  12.053   1.277  0.2843 -0.1072  0.4816
 4427PW      WM18217  10.725  11.934   1.197  0.2551 -0.1813  0.6457
 4428PW       W18218   0.291   0.151   4.031 -0.1542 -0.3624  0.0612
 4428PW      WP18219   0.385   0.167   3.929 -0.3441 -0.2583 -0.1002
 4428PW      WM18220   0.322   0.145   4.168  0.0241  0.1792  0.0541
 4429PW       W18221   3.647   8.794   4.958 -0.1807  0.1334  0.2430
 4429PW      WP18222   3.634   8.913   4.887  0.5127 -0.1390 -0.4043
 4429PW      WM18223   3.673   8.677   5.031  0.1126 -0.1537 -0.2912
 4430PW       W18224  11.856   5.493   0.800 -0.2296  0.0286  0.2092
 4430PW      WP18225  11.810   5.585   0.706 -1.0081 -0.5265 -0.0036
 4430PW      WM18226  11.891   5.436   0.924  0.0960  0.3457  0.2728
 4431PW       W18227  10.705  10.791   2.429 -0.2164  0.3218 -0.3371
 4431PW      WP18228  10.625  10.715   2.343 -0.4526  0.2663 -0.0760
 4431PW      WM18229  10.690  10.775   2.567 -0.4667 -0.0554 -0.3992
 4432PW       W18230   7.089  11.623  11.492 -0.0589 -0.0996  0.5912
 4432PW      WP18231   7.150  11.673  11.608  0.0279  0.3362  0.3648
 4432PW      WM18232   7.207  11.689  11.456 -0.1122 -0.1185  0.3768
 4433PW       W18233   6.193   8.203  12.222 -0.3684  0.2714  0.5084
 4433PW      WP18234   6.265   8.271  12.321 -0.1610  0.2393  0.3820
 4433PW      WM18235   6.177   8.080  12.285  0.7279 -0.0066  0.3503
 4434PW       W18236   6.019   6.387   3.694 -0.3093  0.0081 -0.2991
 4434PW      WP18237   5.919   6.357   3.788 -0.0698 -0.2837 -0.1286
 4434PW      WM18238   5.979   6.492   3.778  0.0576  0.2658 -0.4375
 4435PW       W18239   4.357   8.705   0.698  0.2237  0.0626 -0.1972
 4435PW      WP18240   4.312   8.588   0.759 -0.0488  0.1030 -0.3168
 4435PW      WM18241   4.260   8.699   0.598 -0.1262  0.4115  0.1031
 4436PW       W18242   3.176  10.162   2.139 -0.3005 -0.4236  0.5422
 4436PW      WP18243   3.253  10.048   2.163  0.1447 -0.2333  0.0931
 4436PW      WM18244   3.080  10.264   2.141 -0.1962 -0.2661 -0.3466
 4437PW       W18245  10.281  11.100   2.903 -0.3380  0.1072 -0.1326
 4437PW      WP18246  10.279  10.976   2.968  0.1133  0.1606 -0.0025
 4437PW      WM18247  10.228  10.990   2.835 -0.3406 -0.0918  0.1799
 4438PW       W18248   7.469   7.926   9.800  0.5394 -0.4088  0.2626
 4438PW      WP18249   7.426   7.935   9.932  0.4042 -0.4149  0.2196
 4438PW      WM18250   7.562   8.011   9.738  0.0107  0.2247  0.2902
 4439PW       W18251   9.699   5.886  10.366 -0.0227 -0.0621 -0.2712
 4439PW      WP18252   9.659   5.783  10.280  0.6102 -0.2882 -0.3207
 4439PW      WM18253   9.820   5.909  10.298  0.0346 -0.0512 -0.1667
 4440PW       W18254   1.143   9.647   9.812  0.3389  0.4879  0.1876
 4440PW      WP18255   1.008   9.684   9.821  0.1593 -0.0460 -0.0949
 4440PW      WM18256   1.135   9.781   9.852 -0.0386  0.4679  0.1975
 4441PW       W18257   7.955   6.995  13.016 -0.1297  0.1838  0.5336
 4441PW      WP18258   7.886   7.040  12.903  0.0236  0.3296  0.4965
 4441PW      WM18259   7.954   6.889  12.925  0.6425  0.1566  0.5226
 4442PW       W18260   6.144   5.161  12.520 -0.2492  0.1815  0.3236
 4442PW      WP18261   6.208   5.285  12.532  0.0333  0.1104 -0.2568
 4442PW      WM18262   6.263   5.231  12.491  0.1041 -0.5466 -0.1303
 4443PW       W18263   8.762   1.191   2.390 -0.2302 -0.4213 -0.3838
 4443PW      WP18264   8.820   1.064   2.391  0.6689 -0.0739  0.5241
 4443PW      WM18265   8.866   1.188   2.484 -0.4240 -0.2884 -0.1602
 4444PW       W18266   9.430   7.398   3.514  0.2276  0.0275  0.2141
 4444PW      WP18267   9.485   7.371   3.388 -0.1018  0.0854  0.0502
 4444PW      WM18268   9.300   7.415   3.464  0.4563  0.0584 -0.4240
 4445PW       W18269   2.496   8.734   4.888 -0.1031  0.1259 -0.2079
 4445PW      WP18270   2.467   8.855   4.824  0.1814 -0.1873 -0.9969
 4445PW      WM18271   2.395   8.725   4.985  0.2295 -0.2130  0.1254
 4446PW       W18272  11.998   1.512   4.119  0.4492  0.4514 -0.0785
 4446PW      WP18273  12.015   1.609   4.219 -0.3485  0.0435  0.5130
 4446PW      WM18274  11.962   1.573   3.999 -0.1854  0.0532 -0.1144
 4447PW       W18275   6.952   7.078  11.816  0.3788 -0.2360  0.2504
 4447PW      WP18276   6.851   6.999  11.759 -0.2539  0.2276  0.6620
 4447PW      WM18277   6.902   7.097  11.945  0.1599  0.1551  0.1164
 4448PW       W18278   8.783   5.614  12.477 -0.0675 -0.4467 -0.1972
 4448PW      WP18279   8.785   5.686  12.357 -0.5281 -0.1892 -0.0619
 4448PW      WM18280   8.880   5.552  12.557  0.0538  0.2194  0.2123
 4449PW       W18281  12.018   4.045   0.432 -0.1173 -0.0780  0.2369
 4449PW      WP18282  12.066   4.009   0.558 -0.1777  0.2298  0.3522
 4449PW      WM18283  11.891   4.094   0.466  0.1095  0.6499  0.1290
 4450PW       W18284   1.833   2.608   3.822  0.1942 -0.3082  0.0599
 4450PW      WP18285   1.810   2.734   3.878 -0.0926 -0.5785  0.5860
 4450PW      WM18286   1.946   2.689   3.810 -0.2713  0.3372 -0.2948
 4451PW       W18287   9.028   8.906   3.340 -0.1198 -0.3086 -0.0908
 4451PW      WP18288   9.074   8.834   3.229  0.0560  0.0098 -0.2287
 4451PW      WM18289   8.897   8.905   3.389 -0.1691  0.2022 -0.1889
 4452PW       W18290  11.345   5.442   9.587  0.3670  0.0049  0.0507
 4452PW      WP18291  11.257   5.363   9.513  0.1821 -0.0756  0.3483
 4452PW      WM18292  11.396   5.568   9.553  0.0427  0.2814  0.5272
 4453PW       W18293   5.873   5.764   8.097  0.2278  0.0444  0.1561
 4453PW      WP18294   5.941   5.845   8.188  0.2430  0.0356  0.1525
 4453PW      WM18295   5.821   5.646   8.151 -0.1250 -0.1316 -0.5087
 4454PW       W18296   6.229   3.576  10.436  0.1511 -0.2164  0.3091
 4454PW      WP18297   6.236   3.709  10.395  0.3103 -0.2716  0.1475
 4454PW      WM18298   6.212   3.540  10.302  0.1804 -0.0819  0.2689
 4455PW       W18299  10.274   6.942   3.676 -0.1100 -0.3908  0.0983
 4455PW      WP18300  10.322   6.930   3.545 -0.3923 -0.0607 -0.0438
 4455PW      WM18301  10.287   6.969   3.813 -0.0604 -0.3555  0.0868
 4456PW       W18302   4.814   1.320   3.979  0.0085  0.0634 -0.0949
 4456PW      WP18303   4.919   1.319   3.886 -0.0140 -0.5100 -0.1295
 4456PW      WM18304   4.693   1.270   4.027  0.2713 -0.1461  0.3949
 4457PW       W18305   6.631   2.218  10.454 -0.1356 -0.0250  0.1754
 4457PW      WP18306   6.539   2.116  10.428 -0.5044  0.2414  0.3822
 4457PW      WM18307   6.756   2.200  10.394  0.0151  0.1295  0.4325
 4458PW       W18308   1.337   6.602   9.480  0.1747 -0.2983  0.4731
 4458PW      WP18309   1.360   6.724   9.545 -0.0765  0.1718 -0.2485
 4458PW      WM18310   1.209   6.659   9.494  0.1586 -0.1885 -0.0109
 4459PW       W18311   0.114   2.196   4.229 -0.0034 -0.0265 -0.2627
 4459PW      WP18312  -0.008   2.207   4.162 -0.0553  0.0501 -0.1562
 4459PW      WM18313   0.129   2.316   4.299 -0.5241 -0.0687 -0.0538
 4460PW       W18314   5.306   8.507   3.320 -0.2329 -0.0461 -0.3766
 4460PW      WP18315   5.319   8.371   3.348  0.2665  0.1068  0.2432
 4460PW      WM18316   5.179   8.544   3.366  0.0285 -0.0113  0.3880
 4461PW       W18317  11.584   3.720  10.693 -0.3033 -0.1945 -0.3946
 4461PW      WP18318  11.680   3.799  10.756 -0.2472 -0.1543 -0.5297
 4461PW      WM18319  11.549   3.769  10.567 -0.4413 -0.0612 -0.3065
 4462PW       W18320   8.499   7.393   2.174  0.1933 -0.3276  0.2233
 4462PW      WP18321   8.498   7.501   2.263 -0.0640  0.4865 -0.6771
 4462PW      WM18322   8.623   7.456   2.158  0.0512  0.0670  0.5671
 4463PW       W18323   9.865   7.988   1.203  0.3448  0.2388 -0.1903
 4463PW      WP18324   9.835   8.015   1.337 -0.2694  0.0592 -0.2767
 4463PW      WM18325   9.857   7.850   1.225 -0.4244  0.3146  0.1515
 4464PW       W18326  10.939   5.667   9.084 -0.0180  0.3972  0.0814
 4464PW      WP18327  10.836   5.637   8.994 -0.1389  0.1183  0.3056
 4464PW      WM18328  11.006   5.645   8.963  0.1536 -0.0936  0.2536
 4465PW       W18329   0.705   0.931  10.441  0.8051  0.0520  0.0766
 4465PW      WP18330   0.721   1.049  10.367  0.3361  0.2278  0.2386
 4465PW      WM18331   0.720   0.857  10.322 -0.1131 -0.1512  0.0505
 4466PW       W18332   9.050   2.936   4.029  0.1902  0.3294 -0.0191
 4466PW      WP18333   9.082   2.838   3.935  0.1884  0.0609  0.2541
 4466PW      WM18334   8.925   2.879   4.054  0.1724  0.3202 -0.1272
 4467PW       W18335   0.267  12.115  10.504  0.2426  0.4926 -0.5028
 4467PW      WP18336   0.371  12.057  10.429  0.0876 -0.5435 -0.0002
 4467PW      WM18337   0.170  12.199  10.449 -0.3761 -0.1422 -0.4495
 4468PW       W18338   1.763   9.850   4.880 -0.2370  0.1554  0.1050
 4468PW      WP18339   1.745   9.977   4.935 -0.3074  0.2324 -0.0909
 4468PW      WM18340   1.642   9.819   4.945 -0.1868  0.4467  0.3447
 4469PW       W18341   2.841   2.383   9.514  0.2053 -0.1537  0.1708
 4469PW      WP18342   2.796   2.505   9.566  0.1184 -0.0633 -0.1084
 4469PW      WM18343   2.769   2.404   9.396  0.1484 -0.3199  0.1754
 4470PW       W18344   5.925   8.960  12.964  0.4852 -0.2876 -0.3534
 4470PW      WP18345   5.840   8.848  12.969 -0.4572  0.3752  0.1653
 4470PW      WM18346   5.910   9.002  12.832 -0.4872  0.2638 -0.1188
 4471PW       W18347   7.796   8.453  10.518 -0.3232  0.1840 -0.5403
 4471PW      WP18348   7.700   8.354  10.541  0.0228 -0.0860 -0.1835
 4471PW      WM18349   7.824   8.386  10.398 -0.2556 -0.1672 -0.3349
 4472PW       W18350  10.697   6.149   4.836 -0.3432 -0.1725  0.3662
 4472PW      WP18351  10.682   6.011   4.822  0.1234 -0.1997  0.0378
 4472PW      WM18352  10.705   6.059   4.729 -0.1895 -0.0261  0.2511
 4473PW       W18353   2.739   0.443  12.691 -0.4262 -0.3043 -0.3036
 4473PW      WP18354   2.668   0.543  12.623 -0.0190 -0.1070 -0.4582
 4473PW      WM18355   2.685   0.345  12.775  0.1747 -0.2486  0.1885
 4474PW       W18356   7.241   2.076   9.821 -0.0052  0.1350 -0.5878
 4474PW      WP18357   7.173   2.198   9.827 -0.5451 -0.1659  0.0961
 4474PW      WM18358   7.272   1.941   9.842  0.5779  0.3029 -0.2573
 4475PW       W18359  12.044   0.129   1.829 -0.2045 -0.0488  0.2986
 4475PW      WP18360  11.973   0.104   1.711 -0.4491 -0.5451  0.5375
 4475PW      WM18361  11.967   0.128   1.946  0.2141  0.0154  0.5852
 4476PW       W18362   9.348   4.595  11.686  0.3083 -0.1144  0.1326
 4476PW      WP18363   9.376   4.732  11.691 -0.0111 -0.0343 -0.1447
 4476PW      WM18364   9.230   4.655  11.642  0.0779 -0.2006  0.5956
 4477PW       W18365  12.103   6.224   1.098 -0.4542 -0.1331  0.4017
 4477PW      WP18366  12.063   6.301   0.989  0.0850 -0.3884 -0.0014
 4477PW      WM18367  11.992   6.298   1.057 -0.0341  0.1947 -0.2352
 4478PW       W18368   1.761   6.549   1.684  0.2589 -0.3303 -0.5275
 4478PW      WP18369   1.723   6.649   1.774 -0.0397 -0.3598 -0.6152
 4478PW      WM18370   1.685   6.433   1.705  0.1303 -0.2708 -0.6548
 4479PW       W18371   0.202  10.648   0.464 -0.1736 -0.2258 -0.2838
 4479PW      WP18372   0.172  10.598   0.336 -0.3536  0.4016 -0.5065
 4479PW      WM18373   0.065  10.654   0.492 -0.0647 -0.2916  0.3119
 4480PW       W18374   7.990  11.894   0.402  0.4627  0.2432  0.1148
 4480PW      WP18375   8.099  11.950   0.334  0.0489  0.3274 -0.5133
 4480PW      WM18376   7.965  11.772   0.339 -0.0814  0.4420 -0.0794
 4481PW       W18377   1.554   3.476   4.844 -0.1600 -0.2155 -0.4046
 4481PW      WP18378   1.613   3.601   4.865 -0.0238 -0.3278 -0.0782
 4481PW      WM18379   1.502   3.349   4.872  0.1643 -0.3097 -0.2003
 4482PW       W18380   1.250  11.784   0.317 -0.0800  0.1207 -0.1750
 4482PW      WP18381   1.123  11.803   0.374  0.0819  0.3943  0.1110
 4482PW      WM18382   1.329  11.824   0.208  0.3615 -0.3497 -0.0424
 4483PW       W18383   3.915  10.685   1.163  0.1448 -0.1534 -0.4947
 4483PW      WP18384   3.956  10.654   1.293 -0.6229  0.2517 -0.1245
 4483PW      WM18385   3.777  10.707   1.170  0.1738 -0.0272 -0.2737
 4484PW       W18386   4.645   1.312  12.732 -0.4579 -0.1394  0.3304
 4484PW      WP18387   4.518   1.295  12.677 -0.3564  0.1025  0.0009
 4484PW      WM18388   4.750   1.230  12.690 -0.4285  0.0306  0.0593
 4485PW       W18389   6.180  11.738   2.895  0.1485 -0.2605  0.0303
 4485PW      WP18390   6.214  11.820   3.003 -0.0490  0.0226 -0.1151
 4485PW      WM18391   6.092  11.735   2.786  0.3370 -0.1325 -0.1279
 4486PW       W18392   2.994   2.904  13.362  0.0247  0.2844  0.0626
 4486PW      WP18393   2.894   2.949  13.275  0.1843  0.1869 -0.1767
 4486PW      WM18394   2.969   2.767  13.350 -0.0924  0.3235 -0.1836
 4487PW       W18395   6.656  11.640  13.033 -0.0521 -0.0482 -0.4032
 4487PW      WP18396   6.698  11.773  13.025 -0.1432  0.0501  0.4137
 4487PW      WM18397   6.599  11.539  13.112  0.3831  0.1892  0.2462
 4488PW       W18398   9.275   6.554  10.871  0.1570 -0.2601  0.0373
 4488PW      WP18399   9.319   6.681  10.913  0.2538 -0.2067 -0.2163
 4488PW      WM18400   9.148   6.518  10.917  0.0333  0.2238  0.1122
 4489PW       W18401   3.170   2.998  12.212  0.2842 -0.3393 -0.1757
 4489PW      WP18402   3.284   3.079  12.199  0.0625  0.0589  0.2295
 4489PW      WM18403   3.112   2.919  12.312 -0.0537  0.2539  0.1210
 4490PW       W18404   8.188   5.066   2.197  0.3162 -0.1271  0.6894
 4490PW      WP18405   8.113   5.134   2.294 -0.1937  0.5346 -0.1021
 4490PW      WM18406   8.163   4.930   2.175  0.0028  0.0390 -0.1465
 4491PW       W18407   2.523   1.119   1.899 -0.1080  0.0427  0.1092
 4491PW      WP18408   2.556   1.233   1.824  0.1816 -0.2782 -0.2709
 4491PW      WM18409   2.447   1.037   1.815 -0.6877  0.3186  0.3379
 4492PW       W18410   3.847   0.811   2.336  0.1837 -0.1383 -0.2523
 4492PW      WP18411   3.722   0.786   2.277  0.1436 -0.0091 -0.2245
 4492PW      WM18412   3.977   0.769   2.364  0.0361 -0.4226  0.0492
 4493PW       W18413   6.321   8.625   8.737  0.1887 -0.0736 -0.3890
 4493PW      WP18414   6.316   8.571   8.866  0.2528  0.1312 -0.2978
 4493PW      WM18415   6.452   8.635   8.689  0.3397  0.2765  0.0558
 4494PW       W18416   9.093   3.821  11.266  0.0774 -0.0671  0.1629
 4494PW      WP18417   9.063   3.846  11.131  0.2972  0.1712  0.1543
 4494PW      WM18418   9.147   3.947  11.295 -0.0267  0.0943 -0.2960
 4495PW       W18419   4.584   6.729  12.751  0.1987 -0.1456 -0.4287
 4495PW      WP18420   4.714   6.779  12.749 -0.0116  0.4593 -0.1125
 4495PW      WM18421   4.625   6.595  12.742  0.2705 -0.1863  0.2663
 4496PW       W18422   9.446   6.863  10.222  0.4820 -0.3013  0.0592
 4496PW      WP18423   9.409   6.992  10.263  0.2511 -0.1197 -0.6455
 4496PW      WM18424   9.551   6.952  10.201  0.3665 -0.2461 -0.3155
 4497PW       W18425  10.828   9.928  13.239  0.2053  0.0232  0.5379
 4497PW      WP18426  10.734   9.907  13.137  0.4481  0.2415  0.2600
 4497PW      WM18427  10.955   9.880  13.207  0.0961  0.0669 -0.0049
 4498PW       W18428  10.873   4.251  11.711 -0.0487  0.0397  0.0575
 4498PW      WP18429  10.853   4.113  11.727  0.4084 -0.0397  0.0314
 4498PW      WM18430  10.871   4.252  11.851 -0.1479  0.5264  0.0609
 4499PW       W18431   0.035   9.932  11.693 -0.0977 -0.3273 -0.0604
 4499PW      WP18432   0.006  10.002  11.811 -0.3528  0.1086 -0.3674
 4499PW      WM18433   0.006  10.038  11.607  0.3386 -0.3309 -0.2246
 4500PW       W18434   3.609   0.939   0.745  0.3913  0.1464 -0.1116
 4500PW      WP18435   3.732   0.878   0.717  0.6408  0.7490 -0.4448
 4500PW      WM18436   3.630   1.025   0.853 -0.0429  0.1424 -0.0164
 4501PW       W18437   3.836   6.952   5.276 -0.1956  0.2327  0.1724
 4501PW      WP18438   3.710   6.943   5.337 -0.2232 -0.3422  0.0582
 4501PW      WM18439   3.863   7.034   5.166 -0.0919  0.2822  0.2340
 4502PW       W18440  11.023  11.227   9.188 -0.2118  0.4282  0.1835
 4502PW      WP18441  10.977  11.260   9.316 -0.0178 -0.1509  0.4195
 4502PW      WM18442  11.155  11.229   9.233 -0.2958  0.0104  0.4765
 4503PW       W18443  11.183   6.174   2.148 -0.1634  0.0534  0.2215
 4503PW      WP18444  11.261   6.231   2.250 -0.1088  0.3371  0.0276
 4503PW      WM18445  11.048   6.156   2.119 -0.0845 -0.3742  0.0901
 4504PW       W18446   9.507   9.644  10.145  0.2070 -0.1052  0.7322
 4504PW      WP18447   9.418   9.659  10.253 -0.1625  0.1232  0.4090
 4504PW      WM18448   9.370   9.623  10.124  0.0966  0.8871  0.1491
 4505PW       W18449   7.704   1.039   1.087  0.1659 -0.4179  0.6269
 4505PW      WP18450   7.709   0.899   1.072 -0.2558 -0.3869  0.0167
 4505PW      WM18451   7.813   0.961   1.129  0.5344 -0.3020 -0.0412
 4506PW       W18452   5.974  10.936  12.328 -0.0411  0.0714 -0.3965
 4506PW      WP18453   5.873  10.860  12.267 -0.3507  0.0408  0.1233
 4506PW      WM18454   6.030  11.013  12.226  0.4354 -0.0009 -0.2011
 4507PW       W18455   4.159   2.250  10.407  0.2880 -0.4048 -0.2202
 4507PW      WP18456   4.035   2.311  10.385  0.3464 -0.0538  0.3274
 4507PW      WM18457   4.230   2.306  10.513  0.2183 -0.2309 -0.2648
 4508PW       W18458   7.250  10.574   2.491 -0.0275  0.2575  0.3421
 4508PW      WP18459   7.169  10.479   2.553  0.1544  0.0793  0.3111
 4508PW      WM18460   7.143  10.625   2.417  0.1485 -0.0693 -0.1621
 4509PW       W18461   1.656   6.681  11.786  0.1585  0.3576 -0.3332
 4509PW      WP18462   1.705   6.585  11.696 -0.4534 -0.0541 -0.2576
 4509PW      WM18463   1.535   6.698  11.717 -0.4435  0.2551  0.6117
 4510PW       W18464  11.534  11.371   1.261  0.2410 -0.1184 -0.3076
 4510PW      WP18465  11.535  11.324   1.130  0.6418 -0.4565 -0.1940
 4510PW      WM18466  11.440  11.475   1.269  0.2037 -0.1664 -0.0746
 4511PW       W18467   5.903  11.990  11.237  0.2075  0.1723 -0.4001
 4511PW      WP18468   5.986  12.005  11.125  0.1589  0.1453 -0.4398
 4511PW      WM18469   5.851  11.863  11.264 -0.1981  0.3500 -0.2963
 4512PW       W18470   5.284   9.320   9.883  0.0624 -0.2535 -0.1537
 4512PW      WP18471   5.260   9.188   9.844  0.1089 -0.2923 -0.0514
 4512PW      WM18472   5.372   9.296   9.989  0.0534  0.1293 -0.0522
 4513PW       W18473   6.716   5.647   4.722 -0.3433 -0.1694 -0.1791
 4513PW      WP18474   6.846   5.665   4.674 -0.2632  0.2823  0.1696
 4513PW      WM18475   6.743   5.609   4.854  0.7927  0.1991 -0.2570
 4514PW       W18476   0.012   7.779   9.315 -0.1015 -0.2971  0.1465
 4514PW      WP18477  -0.035   7.657   9.265 -0.0769 -0.3720  0.3042
 4514PW      WM18478   0.127   7.826   9.379 -0.1581 -0.2815  0.2390
 4515PW       W18479  11.342   4.664   0.080 -0.0793  0.4228  0.5517
 4515PW      WP18480  11.255   4.691  -0.026  0.0173 -0.1943  0.2914
 4515PW      WM18481  11.286   4.537   0.059  0.0094  0.4499  0.1188
 4516PW       W18482   5.127   9.121   0.731  0.3643 -0.2979 -0.5511
 4516PW      WP18483   5.181   9.004   0.675 -0.2111 -0.6641 -0.3775
 4516PW      WM18484   5.215   9.109   0.839 -0.0187  0.2704 -0.1432
 4517PW       W18485   3.285   8.979   5.225 -0.2209  0.0989 -0.0332
 4517PW      WP18486   3.351   9.089   5.170 -0.3634  0.1618 -0.0810
 4517PW      WM18487   3.254   8.898   5.116 -0.0557 -0.1806  0.1242
 4518PW       W18488   1.558   3.233   8.781  0.0466 -0.2504 -0.4523
 4518PW      WP18489   1.535   3.135   8.683  0.2152 -0.4254 -0.3217
 4518PW      WM18490   1.553   3.365   8.826 -0.7938 -0.3205 -0.2654
 4519PW       W18491  11.705   5.528   3.401 -0.2426 -0.1754  0.2384
 4519PW      WP18492  11.614   5.625   3.359 -0.2988 -0.1538  0.4053
 4519PW      WM18493  11.660   5.401   3.440 -0.0155 -0.2906  0.1324
 4520PW       W18494   4.155   3.436  11.342  0.3027  0.4995  0.0130
 4520PW      WP18495   4.240   3.325  11.334  0.1378  0.3895 -0.3103
 4520PW      WM18496   4.159   3.436  11.482 -0.4439 -0.4190  0.0814
 4521PW       W18497  10.580   1.706   4.365  0.2635 -0.0538  0.0213
 4521PW      WP18498  10.536   1.767   4.483  0.1111 -0.3423  0.1167
 4521PW      WM18499  10.687   1.756   4.288  0.1261 -0.1299 -0.2222
 4522PW       W18500   8.775  10.821  11.827  0.1718 -0.6445  0.5922
 4522PW      WP18501   8.765  10.705  11.749 -0.0994 -0.2033 -0.0759
 4522PW      WM18502   8.666  10.824  11.915 -0.1760 -0.1139  0.1783
 4523PW       W18503   2.267   7.629  11.958 -0.3181 -0.0478  0.0859
 4523PW      WP18504   2.252   7.701  12.078 -0.3694 -0.4074  0.3034
 4523PW      WM18505   2.132   7.603  11.932 -0.3511 -0.0242  0.2253
 4524PW       W18506   4.221   2.960   2.194  0.1601  0.3474 -0.4743
 4524PW      WP18507   4.278   2.840   2.151 -0.0515  0.2498 -0.4892
 4524PW      WM18508   4.176   3.072   2.122 -0.2605  0.6118  0.1471
 4525PW       W18509  11.186   6.534  11.852  0.2105  0.1328 -0.0717
 4525PW      WP18510  11.190   6.453  11.966 -0.1839 -0.2463 -0.3102
 4525PW      WM18511  11.142   6.659  11.809 -0.5750 -0.1223 -0.0806
 4526PW       W18512  11.130   5.099   0.242 -0.3381  0.3677  0.1478
 4526PW      WP18513  11.099   5.126   0.108 -0.3928  0.2491  0.1356
 4526PW      WM18514  11.000   5.054   0.265 -0.1327 -0.5783 -0.2648
 4527PW       W18515   1.911   4.126   4.110 -0.0102  0.3817  0.0155
 4527PW      WP18516   1.788   4.194   4.108 -0.0710  0.2720 -0.2158
 4527PW      WM18517   1.960   4.165   3.984  0.0906  0.2704  0.0203
 4528PW       W18518  11.742   2.272   3.646  0.1204  0.1324 -0.0458
 4528PW      WP18519  11.871   2.279   3.698  0.0249  0.0625  0.2081
 4528PW      WM18520  11.761   2.208   3.523  0.1427  0.2756 -0.1183
 4529PW       W18521   1.797  11.723  11.957 -0.1534 -0.2112 -0.1047
 4529PW      WP18522   1.886  11.645  11.883  0.3186 -0.0035  0.2224
 4529PW      WM18523   1.658  11.731  11.970 -0.1679 -0.0640 -0.3286
 4530PW       W18524   8.045   0.188   1.523  0.0230 -0.0989 -0.1924
 4530PW      WP18525   8.099   0.311   1.564 -0.1950 -0.0781  0.0409
 4530PW      WM18526   8.142   0.097   1.478  0.3873 -0.0483  0.4336
 4531PW       W18527   5.992   2.720   3.355 -0.0807 -0.2686  0.4004
 4531PW      WP18528   6.011   2.847   3.412  0.5435  0.0583 -0.4327
 4531PW      WM18529   5.959   2.611   3.273 -0.0809  0.1658 -0.2122
 4532PW       W18530   0.374   6.658   5.114  0.2376  0.4881  0.0837
 4532PW      WP18531   0.501   6.654   5.057  0.1941 -0.2999 -0.0133
 4532PW      WM18532   0.358   6.796   5.125  0.0405  0.4949 -0.2191
 4533PW       W18533   6.272  10.686   0.713 -0.0465  0.2519 -0.1466
 4533PW      WP18534   6.227  10.811   0.760  0.0696  0.1590  0.2337
 4533PW      WM18535   6.205  10.628   0.605  0.2945 -0.2102 -0.1228
 4534PW       W18536   4.353   2.389  12.835 -0.0414  0.0462 -0.0898
 4534PW      WP18537   4.215   2.364  12.846 -0.0416  0.0243 -0.1415
 4534PW      WM18538   4.449   2.490  12.819  0.0112  0.0451  0.1894
 4535PW       W18539   1.930   3.223   0.647 -0.1484  0.1595 -0.0741
 4535PW      WP18540   1.993   3.198   0.524  0.1985 -0.0760  0.1451
 4535PW      WM18541   1.926   3.238   0.786  0.0856 -0.4498  0.0118
 4536PW       W18542   3.581  10.663   4.715 -0.1276 -0.0513 -0.4200
 4536PW      WP18543   3.670  10.557   4.737 -0.3135 -0.1005  0.1658
 4536PW      WM18544   3.490  10.741   4.787  0.2214 -0.0657  0.0649
 4537PW       W18545   0.658   2.486   1.720  0.2869 -0.1615  0.2665
 4537PW      WP18546   0.701   2.496   1.853  0.1456 -0.0530  0.3051
 4537PW      WM18547   0.519   2.484   1.735  0.2188 -0.1696 -0.2494
 4538PW       W18548   7.399   9.844  10.290 -0.0614 -0.3472 -0.1038
 4538PW      WP18549   7.504   9.932  10.318  0.3002 -0.5016 -0.8723
 4538PW      WM18550   7.308   9.774  10.211 -0.0639  0.3874 -0.8182
 4539PW       W18551   0.438   4.448   9.919 -0.1964 -0.0415 -0.1283
 4539PW      WP18552   0.387   4.424  10.047  0.2237 -0.4914 -0.0302
 4539PW      WM18553   0.549   4.407   9.845 -0.0034  0.1096  0.0697
 4540PW       W18554   8.359   3.159  11.333 -0.2265  0.1795  0.4497
 4540PW      WP18555   8.489   3.134  11.286 -0.4148  0.1429 -0.0792
 4540PW      WM18556   8.484   3.124  11.386 -0.2077  0.2509  0.4523
 4541PW       W18557   8.603   9.708  12.580  0.2125 -0.0788 -0.0616
 4541PW      WP18558   8.599   9.717  12.720 -0.0744  0.3861 -0.0891
 4541PW      WM18559   8.534   9.626  12.491 -0.4018  0.0363  0.2791
 4542PW       W18560   7.970  10.915   0.861  0.2633  0.1435 -0.7339
 4542PW      WP18561   8.058  10.836   0.936  0.2115  0.2202 -0.5914
 4542PW      WM18562   7.849  10.941   0.795 -0.1140 -0.1336 -0.1872
 4543PW       W18563   9.944   2.824   2.753 -0.1547 -0.3767 -0.0223
 4543PW      WP18564   9.861   2.913   2.824 -0.4458 -0.4565 -0.2527
 4543PW      WM18565   9.849   2.746   2.685 -0.3150  0.0034 -0.2497
 4544PW       W18566   2.471   2.981   3.356  0.5896 -0.4309 -0.1184
 4544PW      WP18567   2.522   3.099   3.413  0.2374 -0.1235 -0.4119
 4544PW      WM18568   2.449   3.029   3.226  0.5298 -0.3064 -0.0631
 4545PW       W18569   0.782   2.489   3.161 -0.4385  0.0484 -0.3374
 4545PW      WP18570   0.722   2.614   3.140 -0.6904 -0.0507 -0.2221
 4545PW      WM18571   0.671   2.531   3.234 -0.4424  0.1897 -0.4230
 4546PW       W18572   2.000   4.171  11.648 -0.0351 -0.1741  0.2223
 4546PW      WP18573   2.114   4.090  11.633 -0.2989 -0.5462  0.1384
 4546PW      WM18574   1.994   4.210  11.782 -0.2410  0.2124  0.1069
 4547PW       W18575   2.044  11.527   8.517  0.2762  0.1255  0.0190
 4547PW      WP18576   2.038  11.414   8.599 -0.0599  0.1707  0.0646
 4547PW      WM18577   1.929  11.603   8.491  0.1360 -0.1362 -0.1539
 4548PW       W18578  10.150   4.448  10.665  0.4097 -0.4105 -0.1851
 4548PW      WP18579  10.183   4.341  10.750  0.2453 -0.1817  0.1783
 4548PW      WM18580  10.247   4.547  10.688  0.3297 -0.5066  0.7447
 4549PW       W18581   2.761   7.715  10.280  0.6552 -0.0081  0.1551
 4549PW      WP18582   2.824   7.605  10.340  0.3391 -0.1484  0.2413
 4549PW      WM18583   2.762   7.716  10.140 -0.0565 -0.1330  0.1279
 4550PW       W18584   9.242   4.703  12.506  0.0932 -0.1220  0.1021
 4550PW      WP18585   9.240   4.667  12.641 -0.3859  0.2522  0.2110
 4550PW      WM18586   9.275   4.840  12.500  0.2778 -0.1729 -0.2208
 4551PW       W18587   0.266   1.086   2.026  0.0368 -0.0856  0.2882
 4551PW      WP18588   0.213   1.127   1.903  0.3991  0.3026  0.2490
 4551PW      WM18589   0.293   0.950   2.043  0.7549 -0.0031 -0.0041
 4552PW       W18590   9.746   3.949   2.112  0.3677  0.0894  0.2762
 4552PW      WP18591   9.726   3.820   2.164  0.1228 -0.0630 -0.1706
 4552PW      WM18592   9.886   3.957   2.115  0.3551  0.2591  0.6337
 4553PW       W18593   7.309   0.748   1.178 -0.3774  0.3600  0.1565
 4553PW      WP18594   7.306   0.885   1.208 -0.0024  0.3233  0.3957
 4553PW      WM18595   7.243   0.677   1.077 -0.4492  0.0437  0.4154
 4554PW       W18596  10.508   8.059  10.742 -0.7404  0.4041  0.5157
 4554PW      WP18597  10.442   8.063  10.618  0.5417  0.0670 -0.2766
 4554PW      WM18598  10.539   8.181  10.805  0.3688  0.5083 -0.0988
 4555PW       W18599   5.807   1.400   4.624  0.3755 -0.0258 -0.4050
 4555PW      WP18600   5.879   1.511   4.580  0.1528  0.5027  0.4455
 4555PW      WM18601   5.897   1.322   4.698 -0.1858 -0.2787  0.0520
 4556PW       W18602  11.140   7.660  11.471  0.0598  0.1220  0.0469
 4556PW      WP18603  11.187   7.789  11.443  0.4806  0.0801  0.4905
 4556PW      WM18604  11.050   7.732  11.552 -0.2356 -0.0384 -0.1298
 4557PW       W18605   1.744   4.100   0.055  0.2895  0.1773 -0.2673
 4557PW      WP18606   1.779   4.070  -0.077  0.2456  0.0161 -0.2434
 4557PW      WM18607   1.850   4.083   0.145 -0.0273  0.0880  0.1023
 4558PW       W18608   0.389   0.923   1.297 -0.2531 -0.0226  0.0980
 4558PW      WP18609   0.338   1.048   1.335 -0.4698  0.0258 -0.3193
 4558PW      WM18610   0.313   0.894   1.412 -0.0831  0.0427  0.2297
 4559PW       W18611   9.183   4.752   4.711 -0.2656 -0.3270  0.1815
 4559PW      WP18612   9.193   4.694   4.838 -0.1743  0.1720  0.4138
 4559PW      WM18613   9.055   4.723   4.663 -0.2632 -0.1329  0.0519
 4560PW       W18614   4.054   4.202   0.343 -0.0997 -0.0237 -0.1791
 4560PW      WP18615   4.164   4.194   0.256  0.1267 -0.0857  0.1042
 4560PW      WM18616   3.994   4.078   0.322 -0.3461  0.0626 -0.0023
 4561PW       W18617   0.517   4.476   3.719 -0.1890 -0.4062  0.4933
 4561PW      WP18618   0.421   4.571   3.680  0.5372  0.0231 -0.4653
 4561PW      WM18619   0.420   4.446   3.814 -0.6003 -0.2952  0.1263
 4562PW       W18620   7.929   4.306  12.043  0.0872  0.3698 -0.1587
 4562PW      WP18621   7.873   4.287  11.917 -0.2052 -0.1925  0.0414
 4562PW      WM18622   7.973   4.438  12.031  0.0227  0.3863 -0.2162
 4563PW       W18623   1.909   6.647   3.726 -0.2231  0.1987  0.0036
 4563PW      WP18624   1.948   6.558   3.826 -0.3399  0.2207  0.0693
 4563PW      WM18625   1.917   6.651   3.586  0.0472 -0.3288 -0.0072
 4564PW       W18626   2.181   9.345  13.228 -0.0291  0.1298  0.2092
 4564PW      WP18627   2.268   9.394  13.327 -0.0508 -0.4767  0.5534
 4564PW      WM18628   2.085   9.447  13.229 -0.1009  0.0639  0.1097
 4565PW       W18629   4.917   1.043   1.092 -0.3762 -0.2019 -0.0251
 4565PW      WP18630   4.929   0.951   1.197  0.1619 -0.1336 -0.0151
 4565PW      WM18631   4.889   1.177   1.122 -0.2354 -0.1188 -0.2547
 4566PW       W18632   5.404   9.061   1.904 -0.0752  0.1750  0.0381
 4566PW      WP18633   5.480   9.001   2.005  0.0386  0.0256 -0.1330
 4566PW      WM18634   5.470   9.180   1.938  0.3700 -0.0875  0.1397
 4567PW       W18635   4.609  11.907  11.425 -0.4453  0.3091 -0.2882
 4567PW      WP18636   4.666  12.034  11.442  0.5315 -0.1356  0.1342
 4567PW      WM18637   4.541  11.924  11.546  0.0445 -0.2175  0.0867
 4568PW       W18638   1.085   0.643  11.097  0.3130 -0.2897  0.0616
 4568PW      WP18639   1.048   0.671  11.229  0.1142 -0.0390 -0.0419
 4568PW      WM18640   0.953   0.613  11.059  0.4394 -0.5467 -0.1960
 4569PW       W18641   7.912   5.580  10.709  0.3578 -0.4052 -0.0141
 4569PW      WP18642   8.038   5.635  10.681  0.0784  0.2729 -0.0363
 4569PW      WM18643   7.938   5.604  10.844  0.0957 -0.2076  0.0057
 4570PW       W18644   3.246   6.519  10.147  0.1415 -0.3119  0.0470
 4570PW      WP18645   3.150   6.424  10.184 -0.0121 -0.2432 -0.1647
 4570PW      WM18646   3.333   6.498  10.254  0.2235  0.1758  0.0879
 4571PW       W18647   6.040   3.529   2.628  0.0042 -0.1218  0.0317
 4571PW      WP18648   5.946   3.445   2.568 -0.4128 -0.1002  0.6097
 4571PW      WM18649   6.083   3.627   2.538  0.2352 -0.3861 -0.1520
 4572PW       W18650   3.686  11.297  12.928  0.3036 -0.3268 -0.0083
 4572PW      WP18651   3.679  11.423  12.987  0.0567 -0.0536 -0.5847
 4572PW      WM18652   3.568  11.310  12.855  0.2271 -0.3931  0.1016
 4573PW       W18653   2.107   9.199   4.292  0.0308  0.1586  0.2416
 4573PW      WP18654   2.015   9.143   4.381 -0.1767  0.1036 -0.0034
 4573PW      WM18655   2.219   9.180   4.210 -0.0812  0.0018  0.1231
 4574PW       W18656   3.272   5.448   4.328 -0.2266 -0.0865 -0.1275
 4574PW      WP18657   3.342   5.329   4.304  0.4640  0.3451 -0.4221
 4574PW      WM18658   3.348   5.560   4.364 -0.4314  0.0374 -0.0735
 4575PW       W18659   9.997  11.605   2.180 -0.1475 -0.0751 -0.0191
 4575PW      WP18660  10.125  11.557   2.148  0.0241 -0.0506  0.5795
 4575PW      WM18661   9.879  11.631   2.249 -0.1508  0.7204 -0.2739
 4576PW       W18662   4.803   9.484   8.889  0.1599 -0.1016 -0.3606
 4576PW      WP18663   4.802   9.549   8.765  0.0896 -0.1164 -0.3684
 4576PW      WM18664   4.918   9.533   8.952  0.0030 -0.2454  0.0567
 4577PW       W18665   2.374   7.013  12.971 -0.0818  0.1944  0.1568
 4577PW      WP18666   2.441   7.082  13.073  0.1371 -0.1272  0.2418
 4577PW      WM18667   2.351   6.882  13.016  0.0612  0.1320  0.0537
 4578PW       W18668   4.782   8.173   2.270  0.4355 -0.0538  0.0355
 4578PW      WP18669   4.760   8.149   2.134  0.2995  0.2160  0.0073
 4578PW      WM18670   4.743   8.080   2.367  0.1063 -0.2010 -0.2315
 4579PW       W18671  11.697   4.437   1.024 -0.2224 -0.1571 -0.0285
 4579PW      WP18672  11.712   4.329   1.113  0.0509 -0.1076 -0.0113
 4579PW      WM18673  11.618   4.543   1.070  0.2960  0.2411 -0.0089
 4580PW       W18674  11.618  11.440   3.512  0.2101 -0.3379 -0.3261
 4580PW      WP18675  11.589  11.386   3.638  0.1603 -0.1547 -0.2581
 4580PW      WM18676  11.633  11.388   3.383 -0.2703 -0.5724 -0.2986
 4581PW       W18677  11.508   2.720   3.616 -0.0928 -0.2212  0.0282
 4581PW      WP18678  11.482   2.775   3.742  0.1970 -0.1113  0.0418
 4581PW      WM18679  11.382   2.764   3.573 -0.0866 -0.1382  0.0950
 4582PW       W18680   2.495   1.497   4.561 -0.2868 -0.1710  0.0936
 4582PW      WP18681   2.408   1.606   4.552  0.0253  0.0655 -0.1826
 4582PW      WM18682   2.482   1.404   4.457  0.2769 -0.2115  0.0426
 4583PW       W18683   7.991  11.009   9.654  0.0680  0.5680 -0.2036
 4583PW      WP18684   8.124  11.001   9.611  0.1084  0.6060 -0.0886
 4583PW      WM18685   7.859  10.991   9.612 -0.0209 -0.0520  0.2638
 4584PW       W18686   5.184  10.951   9.020  0.2270  0.5231 -0.0668
 4584PW      WP18687   5.164  10.970   9.158 -0.2324 -0.0342 -0.0371
 4584PW      WM18688   5.272  10.880   9.102  0.0748  0.2883 -0.1039
 4585PW       W18689   4.988   6.806   1.130  0.3043  0.2652 -0.0994
 4585PW      WP18690   4.940   6.775   1.002 -0.2283  0.2947  0.0798
 4585PW      WM18691   4.895   6.888   1.195  0.5351  0.3604  0.1179
 4586PW       W18692   0.835   3.800   0.399 -0.5568  0.2128 -0.3491
 4586PW      WP18693   0.917   3.876   0.315  0.1062 -0.3786 -0.2807
 4586PW      WM18694   0.730   3.736   0.331 -0.4416 -0.3407 -0.0343
 4587PW       W18695   6.048  10.222  12.937 -0.0590  0.0979 -0.1019
 4587PW      WP18696   5.987  10.296  12.835 -0.3161  0.1264  0.0679
 4587PW      WM18697   6.113  10.190  12.817 -0.0540  0.2062 -0.1278
 4588PW       W18698   4.804   4.140  11.259 -0.1179 -0.3716  0.0262
 4588PW      WP18699   4.919   4.073  11.216 -0.1675 -0.5400  0.1473
 4588PW      WM18700   4.726   4.027  11.287 -0.5221 -0.1434 -0.1370
 4589PW       W18701   3.446   8.976  11.731  0.0117  0.5279 -0.4138
 4589PW      WP18702   3.504   8.855  11.691 -0.3440  0.1782  0.0742
 4589PW      WM18703   3.506   8.972  11.857 -0.4149 -0.3029 -0.2043
 4590PW       W18704   9.203   0.952  10.628 -0.1056  0.0479  0.0539
 4590PW      WP18705   9.299   0.913  10.534  0.1478  0.3230  0.1922
 4590PW      WM18706   9.225   0.984  10.762  0.4852  0.3425 -0.0970
 4591PW       W18707   9.938   0.378   8.432  0.3009  0.2569  0.1040
 4591PW      WP18708   9.923   0.239   8.439 -0.2803  0.2871 -0.2072
 4591PW      WM18709   9.858   0.446   8.339  0.0605 -0.0659  0.0638
 4592PW       W18710   8.885   5.424   4.268 -0.1831  0.0995 -0.0355
 4592PW      WP18711   8.864   5.427   4.406  0.5112 -0.2591  0.1003
 4592PW      WM18712   8.771   5.383   4.197  0.0863 -0.4513 -0.1854
 4593PW       W18713   4.129  11.240  11.260 -0.3069 -0.1037  0.1468
 4593PW      WP18714   4.006  11.279  11.314 -0.3946  0.0437 -0.1511
 4593PW      WM18715   4.121  11.100  11.257 -0.3913 -0.0959 -0.0493
 4594PW       W18716   5.868   6.815   3.445  0.0571 -0.1920  0.3707
 4594PW      WP18717   6.006   6.804   3.471  0.2474  0.2267 -0.3167
 4594PW      WM18718   5.763   6.727   3.421  0.1434 -0.2103  0.0335
 4595PW       W18719   1.600   8.284   2.912 -0.4954  0.3488  0.0697
 4595PW      WP18720   1.595   8.211   2.793 -0.0021  0.2028  0.1254
 4595PW      WM18721   1.718   8.341   2.962 -0.0107 -0.1563 -0.4340
 4596PW       W18722   9.716   9.955   9.246  0.1273  0.4619  0.1996
 4596PW      WP18723   9.707   9.989   9.381  0.1569  0.1954  0.2715
 4596PW      WM18724   9.823   9.933   9.158 -0.0274  0.1643  0.0771
 4597PW       W18725   4.745  10.939   4.717  0.0169 -0.1078  0.3317
 4597PW      WP18726   4.874  10.990   4.736 -0.1388  0.5040 -0.0894
 4597PW      WM18727   4.621  10.878   4.737 -0.3520  0.3300 -0.3863
 4598PW       W18728   6.787   0.526  10.981  0.4169  0.3527 -0.5115
 4598PW      WP18729   6.671   0.477  10.919  0.1299  0.0273  0.2245
 4598PW      WM18730   6.785   0.666  10.983 -0.1379  0.3591  0.0374
 4599PW       W18731   8.908   2.586   0.081  0.1378  0.1376 -0.0450
 4599PW      WP18732   8.796   2.565  -0.001 -0.0725 -0.2804  0.3303
 4599PW      WM18733   8.902   2.521   0.205 -0.2728  0.0869 -0.0834
 4600PW       W18734  10.412  11.221   2.446 -0.1386  0.3216 -0.1932
 4600PW      WP18735  10.410  11.264   2.579 -0.0338  0.0814 -0.1127
 4600PW      WM18736  10.546  11.258   2.463 -0.0048 -0.2348  0.0670
 4601PW       W18737   1.145   0.348   9.468  0.2302 -0.0804 -0.0347
 4601PW      WP18738   1.079   0.471   9.453  0.3899 -0.0280 -0.3647
 4601PW      WM18739   1.061   0.279   9.556  0.0773  0.2458  0.0832
 4602PW       W18740   3.214  11.733   0.675 -0.4652 -0.3911  0.2068
 4602PW      WP18741   3.099  11.813   0.682 -0.2959 -0.1202 -0.0127
 4602PW      WM18742   3.215  11.699   0.539 -0.1438  0.1779  0.0508
 4603PW       W18743  10.153   3.002   4.678  0.2628  0.6806 -0.2390
 4603PW      WP18744  10.218   3.099   4.755  0.1677  0.2701  0.3948
 4603PW      WM18745  10.014   3.009   4.692  0.2908  0.4879  0.2017
 4604PW       W18746   8.865  11.851  11.678 -0.3172  0.1859  0.3467
 4604PW      WP18747   8.886  11.713  11.686  0.0694  0.1638 -0.5162
 4604PW      WM18748   8.787  11.883  11.566 -0.0048 -0.4312 -0.0802
 4605PW       W18749   4.060   3.920   8.451  0.3894 -0.3111  0.0239
 4605PW      WP18750   3.960   3.933   8.549  0.2647 -0.2495 -0.1092
 4605PW      WM18751   4.083   4.057   8.442 -0.0829 -0.1240  0.9701
 4606PW       W18752   2.415   1.880  10.060 -0.2594  0.0643 -0.4933
 4606PW      WP18753   2.534   1.835  10.118 -0.2100  0.3168 -0.3942
 4606PW      WM18754   2.405   1.744  10.093  0.2168  0.1229 -0.0386
 4607PW       W18755   3.215  10.841   2.295 -0.2041  0.0828 -0.0352
 4607PW      WP18756   3.270  10.774   2.405 -0.5335 -0.1641 -0.0155
 4607PW      WM18757   3.176  10.930   2.194  0.0471  0.0172 -0.1960
 4608PW       W18758   8.519  10.943  12.973 -0.1464 -0.2267  0.0134
 4608PW      WP18759   8.405  10.865  12.998  0.0200 -0.4251  0.1743
 4608PW      WM18760   8.424  10.992  13.064 -0.1050  0.0141 -0.0696
 4609PW       W18761  11.905   0.559   2.526 -0.0770 -0.0663 -0.0213
 4609PW      WP18762  12.017   0.499   2.466 -0.0197  0.1629 -0.1502
 4609PW      WM18763  11.783   0.585   2.463 -0.0477  0.0359 -0.0361
 4610PW       W18764   2.970  11.714  10.055  0.1275  0.2473 -0.2152
 4610PW      WP18765   2.926  11.581  10.045  0.4367  0.1328 -0.1350
 4610PW      WM18766   2.960  11.762   9.924  0.5773 -0.3287 -0.4867
 4611PW       W18767   2.432  10.925  10.660  0.0663 -0.1586  0.0437
 4611PW      WP18768   2.326  10.837  10.687 -0.1489  0.1752  0.3278
 4611PW      WM18769   2.510  11.039  10.682 -0.0151 -0.1176  0.1240
 4612PW       W18770  11.436   2.697   4.417  0.2383 -0.0165 -0.6469
 4612PW      WP18771  11.397   2.769   4.304 -0.0116  0.3014 -0.3702
 4612PW      WM18772  11.412   2.563   4.452 -0.4784  0.3108  0.3373
 4613PW       W18773   6.834   4.550   9.655 -0.0625 -0.1969  0.3239
 4613PW      WP18774   6.794   4.444   9.737 -0.3673 -0.1816  0.2062
 4613PW      WM18775   6.959   4.487   9.658  0.0565 -0.0183 -0.2287
 4614PW       W18776   7.953   9.707   5.243 -0.3442 -0.3207  0.0245
 4614PW      WP18777   7.824   9.726   5.190 -0.3260 -0.2445  0.0061
 4614PW      WM18778   8.056   9.739   5.154 -0.1620 -0.1070  0.3029
 4615PW       W18779   7.757   3.085  12.058 -0.5802  0.0210 -0.0714
 4615PW      WP18780   7.690   2.962  12.052 -0.1315 -0.2443  0.1128
 4615PW      WM18781   7.785   3.222  12.059  0.1548 -0.1091  0.1024
 4616PW       W18782   9.386   9.292   3.794 -0.1684 -0.0191 -0.1786
 4616PW      WP18783   9.326   9.364   3.690 -0.1201 -0.6364 -0.6631
 4616PW      WM18784   9.521   9.258   3.794 -0.0245  0.4886  0.1124
 4617PW       W18785   3.219   7.798  10.463  0.0669  0.0924 -0.0153
 4617PW      WP18786   3.208   7.936  10.484  0.3960  0.1520 -0.2001
 4617PW      WM18787   3.349   7.746  10.457  0.0790  0.0304  0.5364
 4618PW       W18788   9.895   5.305  13.129 -0.2260 -0.0279 -0.1722
 4618PW      WP18789   9.986   5.286  13.024 -0.0451 -0.0032 -0.0245
 4618PW      WM18790   9.912   5.203  13.224 -0.3843  0.0440 -0.0647
 4619PW       W18791   9.573   9.635  13.294  0.2199  0.0953  0.4917
 4619PW      WP18792   9.455   9.690  13.346  0.2936  0.2351  0.5145
 4619PW      WM18793   9.592   9.518  13.368  0.6958  0.0552  0.3229
 4620PW       W18794   5.527   5.205  11.556  0.3906  0.1666  0.4205
 4620PW      WP18795   5.497   5.095  11.475 -0.0777  0.6248 -0.0666
 4620PW      WM18796   5.628   5.303  11.557  0.2631  0.3215 -0.1643
 4621PW       W18797  11.528   3.101   3.129 -0.2019  0.4903  0.1582
 4621PW      WP18798  11.599   3.154   3.020  0.0678 -0.1999 -0.0284
 4621PW      WM18799  11.664   3.085   3.100 -0.2620  0.2874 -0.0304
 4622PW       W18800   6.438  10.603   4.401  0.2340 -0.1702 -0.1533
 4622PW      WP18801   6.463  10.566   4.534 -0.3351 -0.4292 -0.1034
 4622PW      WM18802   6.524  10.711   4.378 -0.0950  0.0064 -0.6476
 4623PW       W18803   1.447   6.386   2.030 -0.0575  0.2373  0.0350
 4623PW      WP18804   1.478   6.279   1.946  0.2596  0.1833  0.2122
 4623PW      WM18805   1.322   6.434   2.073 -0.0627  0.3294 -0.0792
 4624PW       W18806   4.126   2.401   0.762  0.2327  0.2499 -0.0262
 4624PW      WP18807   4.113   2.445   0.630  0.4839 -0.0489 -0.1567
 4624PW      WM18808   4.206   2.292   0.725  0.0488  0.0381  0.1766
 4625PW       W18809   2.991  11.305   9.805  0.1143  0.3817  0.0376
 4625PW      WP18810   3.129  11.280   9.818  0.1399  0.6214  0.2816
 4625PW      WM18811   2.933  11.380   9.908 -0.1812 -0.4878  0.5587
 4626PW       W18812   1.529   1.237  12.671  0.3240  0.4608 -0.1387
 4626PW      WP18813   1.531   1.368  12.721 -0.0886  0.4455 -0.0641
 4626PW      WM18814   1.510   1.117  12.741  0.6173  0.5225  0.0547
 4627PW       W18815   2.207   4.534   4.815  0.3591 -0.2596  0.2688
 4627PW      WP18816   2.256   4.411   4.772 -0.1826 -0.2951 -0.3250
 4627PW      WM18817   2.247   4.648   4.886  0.0636 -0.1912  0.3327
 4628PW       W18818   0.799   9.143   3.733  0.1722  0.1238  0.0378
 4628PW      WP18819   0.827   9.066   3.619 -0.3969 -0.0304 -0.0131
 4628PW      WM18820   0.779   9.250   3.646 -0.2603 -0.1959 -0.2779
 4629PW       W18821  10.641   0.279   9.683  0.5249 -0.0826  0.0808
 4629PW      WP18822  10.539   0.215   9.755  0.4792  0.1008  0.1813
 4629PW      WM18823  10.702   0.403   9.662  0.1317 -0.0005 -0.8029
 4630PW       W18824  10.608   8.378   2.663  0.0532  0.0107  0.4449
 4630PW      WP18825  10.580   8.242   2.680 -0.1956 -0.0918 -0.5093
 4630PW      WM18826  10.679   8.403   2.781  0.1539 -0.1503  0.4186
 4631PW       W18827   4.000  10.920   3.299 -0.2337  0.1347  0.3359
 4631PW      WP18828   4.037  11.054   3.278 -0.2290  0.0512 -0.2928
 4631PW      WM18829   4.014  10.798   3.233  0.3200  0.3399  0.0388
 4632PW       W18830   8.698   4.448   1.691 -0.5456 -0.2759 -0.4350
 4632PW      WP18831   8.634   4.543   1.771  0.1970 -0.4512  0.4556
 4632PW      WM18832   8.828   4.396   1.683 -0.3561  0.0802  0.0809
 4633PW       W18833  10.605  10.631  13.144  0.2011  0.3127 -0.5638
 4633PW      WP18834  10.550  10.506  13.113 -0.2751  0.2673  0.3168
 4633PW      WM18835  10.612  10.674  13.277  0.2893 -0.1682 -0.4037
 4634PW       W18836  10.510   5.036   9.892  0.1738  0.1874  0.3253
 4634PW      WP18837  10.406   5.055   9.800  0.3772 -0.3781 -0.0514
 4634PW      WM18838  10.427   5.041  10.004  0.1874 -0.1365  0.3541
 4635PW       W18839  10.845   7.358   1.249  0.1181  0.0257  0.0026
 4635PW      WP18840  10.747   7.258   1.247  0.1246  0.0209 -0.1437
 4635PW      WM18841  10.931   7.417   1.156  0.1990 -0.1593 -0.0428
 4636PW       W18842   2.232   5.333   2.162  0.1013 -0.0012 -0.7772
 4636PW      WP18843   2.357   5.362   2.217 -0.0164  0.0178 -0.5154
 4636PW      WM18844   2.101   5.383   2.165 -0.0124 -0.2467  0.3719
 4637PW       W18845   0.708   7.973   2.775 -0.1729  0.0926  0.2804
 4637PW      WP18846   0.749   7.875   2.867  0.3931  0.4687  0.4604
 4637PW      WM18847   0.569   7.983   2.775 -0.1656  0.2041  0.2780
 4638PW       W18848   8.756   8.423   1.170  0.0063 -0.3359  0.7801
 4638PW      WP18849   8.875   8.371   1.221  0.2809 -0.1728  0.3361
 4638PW      WM18850   8.722   8.529   1.255 -0.1039  0.2176  0.0895
 4639PW       W18851   7.545   5.418  11.503  0.4224 -0.1008  0.0531
 4639PW      WP18852   7.415   5.383  11.466  0.3513 -0.2912  0.4581
 4639PW      WM18853   7.604   5.351  11.395 -0.0170 -0.1247 -0.1810
 4640PW       W18854  10.641   6.932   4.939 -0.1680  0.0829  0.2433
 4640PW      WP18855  10.701   7.047   4.990 -0.1617  0.2309 -0.0835
 4640PW      WM18856  10.718   6.880   5.044  0.0264 -0.5478 -0.1802
 4641PW       W18857   6.577   5.053   3.542 -0.2572 -0.0348  0.2525
 4641PW      WP18858   6.470   5.010   3.462 -0.0366 -0.0152 -0.0653
 4641PW      WM18859   6.495   5.066   3.654 -0.1261 -0.5532  0.4244
 4642PW       W18860   4.956   1.566  12.338 -0.0147 -0.0387 -0.0436
 4642PW      WP18861   5.080   1.613  12.380 -0.2832  0.2758  0.4464
 4642PW      WM18862   4.886   1.687  12.325 -0.0429 -0.0857 -0.3966
 4643PW       W18863   8.543   2.404   0.425  0.1598 -0.1758  0.0584
 4643PW      WP18864   8.580   2.283   0.485 -0.0070 -0.3637 -0.2074
 4643PW      WM18865   8.494   2.487   0.324  0.3301 -0.0856  0.0472
 4644PW       W18866   9.203   5.741  11.611  0.0102  0.3463  0.4378
 4644PW      WP18867   9.245   5.721  11.479 -0.0279  0.2830  0.4352
 4644PW      WM18868   9.095   5.659  11.644  0.1555 -0.0201  0.0495
 4645PW       W18869  12.084   4.542   9.733 -0.0288 -0.2037  0.7291
 4645PW      WP18870  12.115   4.638   9.830  0.3022  0.1713  0.2750
 4645PW      WM18871  12.072   4.403   9.726  0.7405 -0.2746  0.0951
 4646PW       W18872   7.097   8.725   3.176 -0.0912  0.0670 -0.2866
 4646PW      WP18873   7.200   8.646   3.123 -0.0345  0.0251 -0.1205
 4646PW      WM18874   7.171   8.798   3.270 -0.5126  0.1895 -0.0360
 4647PW       W18875   1.703   5.503   9.632 -0.1144  0.0103  0.6505
 4647PW      WP18876   1.598   5.591   9.607  0.1480  0.1798  0.0424
 4647PW      WM18877   1.819   5.580   9.614 -0.0583 -0.1182  0.4341
 4648PW       W18878   4.427   3.111   9.137 -0.1429 -0.3578 -0.1484
 4648PW      WP18879   4.349   3.109   9.021 -0.1883  0.0610 -0.1333
 4648PW      WM18880   4.461   2.984   9.091 -0.3081 -0.3645 -0.2551
 4649PW       W18881   6.391   6.258   1.401 -0.1376 -0.0137 -0.1403
 4649PW      WP18882   6.443   6.387   1.418  0.2794 -0.2466  0.5956
 4649PW      WM18883   6.467   6.229   1.515 -0.0189  0.4838 -0.0803
 4650PW       W18884   0.306   2.980   5.381  0.0895  0.2837  0.2351
 4650PW      WP18885   0.215   3.087   5.377 -0.0458  0.1657 -0.0534
 4650PW      WM18886   0.361   2.881   5.462  0.0642 -0.5543 -0.6794
 4651PW       W18887   5.921   6.476   9.992 -0.0680  0.1846 -0.0394
 4651PW      WP18888   5.887   6.495   9.858  0.4004 -0.1712 -0.2241
 4651PW      WM18889   5.801   6.418  10.032  0.2050 -0.1523  0.3363
 4652PW       W18890   4.099   7.888   0.902  0.1766 -0.7057 -0.0819
 4652PW      WP18891   4.203   7.873   0.809  0.5174 -0.6298  0.2743
 4652PW      WM18892   4.235   7.915   0.919  0.0378 -0.1651  0.3141
 4653PW       W18893   8.653   4.127   4.795 -0.1755 -0.0676  0.5399
 4653PW      WP18894   8.720   4.239   4.742 -0.1580 -0.1830  0.3117
 4653PW      WM18895   8.669   4.020   4.706  0.5968  0.3006  0.1780
 4654PW       W18896   9.757   8.254   2.212  0.1184  0.2038  0.0722
 4654PW      WP18897   9.782   8.120   2.243  0.3297  0.2528  0.1230
 4654PW      WM18898   9.675   8.317   2.116 -0.4474 -0.2911  0.2041
 4655PW       W18899   7.657   1.526   2.391  0.5442 -0.1636 -0.3597
 4655PW      WP18900   7.653   1.395   2.439  0.0311  0.0557  0.2768
 4655PW      WM18901   7.629   1.637   2.310  0.2419  0.0437  0.0082
 4656PW       W18902   9.914   3.834  10.234  0.0305 -0.1371 -0.3729
 4656PW      WP18903   9.849   3.801  10.354  0.1081  0.1414 -0.2496
 4656PW      WM18904   9.800   3.910  10.264  0.2426  0.0271  0.0574
 4657PW       W18905   2.473   5.031   0.834  0.0796 -0.1560 -0.1469
 4657PW      WP18906   2.430   4.971   0.715  0.1072  0.1116 -0.2966
 4657PW      WM18907   2.440   5.120   0.731 -0.2093 -0.0592  0.0218
 4658PW       W18908   1.911   2.809   0.408  0.0121 -0.0468  0.1548
 4658PW      WP18909   1.810   2.828   0.314  0.2071 -0.1093 -0.0715
 4658PW      WM18910   2.009   2.908   0.426  0.1084 -0.1059 -0.0308
 4659PW       W18911   0.242   0.134   4.877 -0.0476 -0.3738 -0.0701
 4659PW      WP18912   0.311   0.012   4.868  0.3998 -0.1445  0.1140
 4659PW      WM18913   0.290   0.204   4.765  0.4748 -0.1608  0.2659
 4660PW       W18914   1.822   7.675  10.519  0.0989 -0.2251  0.4038
 4660PW      WP18915   1.772   7.555  10.469  0.3235 -0.3303  0.4270
 4660PW      WM18916   1.700   7.609  10.504 -0.1956  0.3032  0.3408
 4661PW       W18917   3.845   9.923  10.420  0.3131  0.1410  0.0762
 4661PW      WP18918   3.946   9.988  10.347 -0.1084  0.8397  0.0756
 4661PW      WM18919   3.783  10.019  10.501  0.1780  0.2849 -0.1914
 4662PW       W18920   9.732   6.557   1.266 -0.2135 -0.5586 -0.1825
 4662PW      WP18921   9.868   6.563   1.299 -0.1874  0.2355 -0.3478
 4662PW      WM18922   9.640   6.644   1.206  0.1926  0.0396  0.0230
 4663PW       W18923   8.476   6.973  12.092 -0.0358 -0.3054 -0.0780
 4663PW      WP18924   8.439   6.866  12.010 -0.0315 -0.1385 -0.2998
 4663PW      WM18925   8.584   6.977  12.003 -0.0468  0.1393 -0.0844
 4664PW       W18926   7.752   3.096   4.488  0.4454 -0.3483  0.5104
 4664PW      WP18927   7.775   3.064   4.623 -0.1360  0.0449  0.7258
 4664PW      WM18928   7.649   3.011   4.448 -0.0634  0.2680  0.4351
 4665PW       W18929   0.838  11.876   2.145  0.6595 -0.1293  0.0728
 4665PW      WP18930   0.804  11.798   2.034  0.5160 -0.4286  0.3202
 4665PW      WM18931   0.837  12.008   2.193 -0.2674 -0.1055  0.0784
 4666PW       W18932   9.552   4.297   0.518 -0.5111  0.1081  0.2354
 4666PW      WP18933   9.449   4.312   0.424  0.0123  0.2689 -0.3406
 4666PW      WM18934   9.511   4.424   0.561  0.3439  0.2382  0.7812
 4667PW       W18935   1.649   8.293   0.419 -0.1982 -0.4024  0.0626
 4667PW      WP18936   1.638   8.380   0.528 -0.1731 -0.2485 -0.0567
 4667PW      WM18937   1.703   8.327   0.295 -0.1010 -0.5851  0.0527
 4668PW       W18938   6.778  10.437   5.170 -0.5435 -0.4213 -0.1777
 4668PW      WP18939   6.818  10.307   5.138  0.0937 -0.3158  0.1176
 4668PW      WM18940   6.725  10.521   5.269 -0.1784 -0.4998  0.0950
 4669PW       W18941   4.374   8.491  11.111 -0.3381 -0.2071 -0.1119
 4669PW      WP18942   4.327   8.615  11.155 -0.1973 -0.2600  0.2008
 4669PW      WM18943   4.451   8.417  11.202 -0.0448  0.1565 -0.0529
 4670PW       W18944   1.512  12.154   1.171  0.0592  0.0173  0.1426
 4670PW      WP18945   1.606  12.059   1.130 -0.0695 -0.3132  0.5676
 4670PW      WM18946   1.383  12.126   1.218  0.0779  0.1648  0.2888
 4671PW       W18947   3.346   6.794   0.135 -0.0039  0.1480  0.1576
 4671PW      WP18948   3.302   6.915   0.079 -0.2861 -0.0047  0.0395
 4671PW      WM18949   3.329   6.674   0.065  0.2137 -0.0359  0.4102
 4672PW       W18950  10.476   0.998   2.060  0.3501 -0.0311 -0.0832
 4672PW      WP18951  10.514   0.886   1.985 -0.2895 -0.3281 -0.0007
 4672PW      WM18952  10.480   1.091   1.955 -0.2425  0.0503 -0.0551
 4673PW       W18953   9.668   2.353  10.887  0.5910 -0.0428 -0.2392
 4673PW      WP18954   9.703   2.428  10.999 -0.9060 -0.0311  0.3369
 4673PW      WM18955   9.655   2.480  10.944  0.5336 -0.1185 -0.0819
 4674PW       W18956   8.702  11.226  10.924 -0.3768  0.1056 -0.1845
 4674PW      WP18957   8.704  11.355  10.978 -0.2809 -0.1167  0.3842
 4674PW      WM18958   8.787  11.181  10.823  0.0118  0.0558  0.1519
 4675PW       W18959   0.541   9.391  12.785 -0.1183 -0.0339  0.2728
 4675PW      WP18960   0.428   9.361  12.708  0.1456 -0.0797 -0.1112
 4675PW      WM18961   0.452   9.348  12.884 -0.4951  0.2583  0.0781
 4676PW       W18962   7.239  11.114  10.157 -0.1934 -0.1769 -0.2465
 4676PW      WP18963   7.271  11.245  10.118  0.0785 -0.2480 -0.2718
 4676PW      WM18964   7.242  11.181  10.280  0.0798  0.1823 -0.4377
 4677PW       W18965   7.488   5.538   3.049 -0.0161 -0.5586  0.3001
 4677PW      WP18966   7.468   5.648   3.133 -0.2063 -0.1125 -0.2922
 4677PW      WM18967   7.387   5.614   3.109 -0.4787 -0.5998 -0.3681
 4678PW       W18968   6.500   1.513   3.134 -0.0748  0.2766 -0.1385
 4678PW      WP18969   6.529   1.379   3.107 -0.3906  0.1358  0.1827
 4678PW      WM18970   6.436   1.572   3.025 -0.5567 -0.2757 -0.1785
 4679PW       W18971  11.220   1.037   0.539 -0.2345 -0.3381 -0.0978
 4679PW      WP18972  11.147   0.953   0.624  0.1631 -0.1132  0.4985
 4679PW      WM18973  11.336   0.960   0.524 -0.1464 -0.2870  0.2732
 4680PW       W18974   8.846  11.633  10.628  0.2181  0.2231  0.4010
 4680PW      WP18975   8.819  11.755  10.691 -0.4142  0.2477  0.1220
 4680PW      WM18976   8.788  11.511  10.666 -0.2044  0.4800  0.6185
 4681PW       W18977   6.001   6.843   9.025  0.1177 -0.3174 -0.1216
 4681PW      WP18978   6.033   6.907   9.146 -0.7130 -0.1883  0.0605
 4681PW      WM18979   5.883   6.901   9.071  0.0321 -0.3764 -0.2650
 4682PW       W18980   5.823  11.704   3.714  0.0860 -0.4186 -0.0604
 4682PW      WP18981   5.708  11.665   3.784 -0.0147  0.0778  0.0698
 4682PW      WM18982   5.865  11.830   3.668  0.3485 -0.4481  0.0875
 4683PW       W18983   2.435   9.419  11.515  0.2455  0.0461  0.0834
 4683PW      WP18984   2.399   9.424  11.380  0.0585 -0.8506  0.0703
 4683PW      WM18985   2.471   9.352  11.633 -0.1527 -0.1884  0.0783
 4684PW       W18986  11.046   6.110   4.125 -0.1142 -0.0689  0.0914
 4684PW      WP18987  11.103   6.221   4.189  0.0892 -0.1637  0.0789
 4684PW      WM18988  10.920   6.125   4.185 -0.1907  0.3930 -0.1582
 4685PW       W18989   5.003   7.575  12.687 -0.0777  0.0044  0.0931
 4685PW      WP18990   4.863   7.581  12.698 -0.0815  0.6259 -0.1091
 4685PW      WM18991   5.004   7.705  12.636 -0.0367 -0.1382 -0.2923
 4686PW       W18992  10.795  11.638   8.639  0.5642  0.0057 -0.1816
 4686PW      WP18993  10.851  11.638   8.768  0.5910  0.5001 -0.1823
 4686PW      WM18994  10.764  11.753   8.714  0.1655 -0.0520 -0.2498
 4687PW       W18995   0.969   4.449  11.979 -0.3645  0.0128  0.1438
 4687PW      WP18996   1.002   4.574  11.924  0.2604 -0.1869  0.0304
 4687PW      WM18997   0.859   4.502  11.910 -0.2897 -0.0512 -0.0268
 4688PW       W18998   4.927   7.789   1.949 -0.0073 -0.0681 -0.2246
 4688PW      WP18999   4.976   7.764   2.078 -0.0833 -0.2027 -0.2212
 4688PW      WM19000   4.849   7.896   1.994  0.4439 -0.0403  0.6006
 4689PW       W19001   6.328   9.552  12.527  0.3086 -0.1701  0.1052
 4689PW      WP19002   6.242   9.658  12.495  0.5604 -0.1853 -0.7599
 4689PW      WM19003   6.452   9.551  12.461  0.1887  0.0391 -0.1343
 4690PW       W19004  11.250   5.331  11.256 -0.0401  0.0198  0.1966
 4690PW      WP19005  11.243   5.458  11.314 -0.2345  0.1728 -0.1485
 4690PW      WM19006  11.389   5.320  11.254 -0.0557 -0.2974  0.4567
 4691PW       W19007  11.795   3.563   0.387 -0.0589  0.2811 -0.5175
 4691PW      WP19008  11.850   3.437   0.409 -0.6230  0.0855 -0.1215
 4691PW      WM19009  11.666   3.613   0.365 -0.3807 -0.3612 -0.2199
 4692PW       W19010   5.090  10.196  10.645  0.1522 -0.3339  0.2081
 4692PW      WP19011   5.162  10.093  10.583 -0.0147 -0.5594  0.3808
 4692PW      WM19012   5.160  10.281  10.558 -0.5417  0.0183 -0.0461
 4693PW       W19013   4.991  10.364  12.841 -0.4341 -0.3592  0.0623
 4693PW      WP19014   5.086  10.310  12.755  0.1326  0.0259  0.4120
 4693PW      WM19015   4.887  10.362  12.935 -0.5401 -0.3379 -0.0529
 4694PW       W19016   6.504   1.007   8.732 -0.2276  0.0522  0.0333
 4694PW      WP19017   6.467   1.029   8.599 -0.3049  0.3121  0.0938
 4694PW      WM19018   6.619   0.932   8.708 -0.3311  0.0045 -0.3480
 4695PW       W19019   4.089   7.239   0.468  0.3235 -0.6543 -0.1050
 4695PW      WP19020   4.112   7.107   0.428 -0.1085 -0.6379 -0.4447
 4695PW      WM19021   4.225   7.215   0.488  0.2849 -0.4641  0.4972
 4696PW       W19022   0.747   9.811  10.116  0.1794  0.1565  0.3089
 4696PW      WP19023   0.610   9.797  10.141  0.0823  0.3776 -0.0565
 4696PW      WM19024   0.861   9.884  10.154  0.2120  0.2546  0.0391
 4697PW       W19025   0.952   6.994   3.585  0.3913  0.2670  0.1392
 4697PW      WP19026   0.894   7.002   3.457 -0.1446 -0.0011  0.3470
 4697PW      WM19027   1.050   6.957   3.677  0.1632 -0.0887  0.2486
 4698PW       W19028   6.231   3.103   4.476 -0.1740  0.0028  0.1419
 4698PW      WP19029   6.276   2.993   4.549 -0.0441 -0.0037  0.0544
 4698PW      WM19030   6.118   3.027   4.443 -0.1533  0.2187 -0.5043
 4699PW       W19031   7.445   0.395   3.700  0.2583  0.0486 -0.0094
 4699PW      WP19032   7.540   0.464   3.777  0.0321  0.0632  0.2662
 4699PW      WM19033   7.501   0.287   3.631  0.1070 -0.0880  0.0775
 4700PW       W19034   9.337   1.580   1.723 -0.2445 -0.6751  0.2347
 4700PW      WP19035   9.362   1.602   1.859 -0.2148 -0.0586  0.1476
 4700PW      WM19036   9.258   1.571   1.837 -0.6329  0.0637  0.0608
 4701PW       W19037   9.175   2.712  11.560  0.0118  0.2938  0.4531
 4701PW      WP19038   9.102   2.811  11.626 -0.4312  0.2024  0.1196
 4701PW      WM19039   9.235   2.838  11.547 -0.0612  0.2831 -0.1561
 4702PW       W19040   9.791   6.061   1.110 -0.0966 -0.4106  0.3234
 4702PW      WP19041   9.680   6.147   1.113  0.3748  0.2512 -0.0002
 4702PW      WM19042   9.807   6.013   1.240 -0.2047 -0.0683  0.4691
 4703PW       W19043   7.070   9.142   0.770  0.2326 -0.1054 -0.0289
 4703PW      WP19044   6.996   9.098   0.660 -0.2349  0.3596  0.0785
 4703PW      WM19045   7.183   9.220   0.741 -0.0605  0.3577  0.0334
 4704PW       W19046   1.186  10.789   4.026  0.4474 -0.5068 -0.1765
 4704PW      WP19047   1.076  10.724   4.084  0.0403 -0.1040 -0.4589
 4704PW      WM19048   1.233  10.897   4.102 -0.0928 -0.2349 -0.2052
 4705PW       W19049   4.207   3.443   3.867 -0.1479 -0.2324  0.0202
 4705PW      WP19050   4.155   3.509   3.755 -0.3186 -0.5891 -0.1174
 4705PW      WM19051   4.270   3.331   3.812  0.0067 -0.0638 -0.1521
 4706PW       W19052   0.920   0.676   9.034  0.1490 -0.4369  0.1248
 4706PW      WP19053   0.935   0.752   8.917  0.5480 -0.2239  0.3040
 4706PW      WM19054   1.007   0.581   8.978  0.1632 -0.0627 -0.5448
 4707PW       W19055  12.070   9.269   4.251  0.0556  0.2079 -0.5017
 4707PW      WP19056  12.030   9.149   4.190 -0.0267  0.0519 -0.1535
 4707PW      WM19057  12.068   9.401   4.296 -0.0917 -0.0551  0.3306
 4708PW       W19058   9.999   2.013  12.079 -0.0503  0.0333 -0.4143
 4708PW      WP19059  10.097   1.913  12.082 -0.2623 -0.1759  0.0647
 4708PW      WM19060  10.049   2.138  12.039  0.3536  0.0083 -0.0293
 4709PW       W19061   5.135  10.769  10.066 -0.2484  0.0827 -0.5660
 4709PW      WP19062   5.250  10.841  10.100 -0.3651  0.0589 -0.0897
 4709PW      WM19063   5.104  10.906  10.067 -0.1008  0.1446  0.4191
 4710PW       W19064   9.538   6.063  12.911 -0.1986 -0.0268 -0.0405
 4710PW      WP19065   9.445   6.073  12.806 -0.3089  0.2359  0.0764
 4710PW      WM19066   9.411   6.034  12.962 -0.3696  0.3121 -0.2489
 4711PW       W19067   4.762   1.844   0.682 -0.2603  0.1315  0.3107
 4711PW      WP19068   4.725   1.744   0.773 -0.1459 -0.0419  0.1703
 4711PW      WM19069   4.668   1.813   0.583 -0.2163  0.2760  0.2226
 4712PW       W19070   0.672   3.276   4.340  0.0373 -0.0219  0.1444
 4712PW      WP19071   0.729   3.336   4.227 -0.3858 -0.0905 -0.1205
 4712PW      WM19072   0.548   3.290   4.275  0.2911  0.0134 -0.3564
 4713PW       W19073   5.232   8.763   8.308 -0.1290  0.2423 -0.2181
 4713PW      WP19074   5.227   8.709   8.437  0.0151 -0.4658 -0.4830
 4713PW      WM19075   5.184   8.866   8.227 -0.1221  0.1904 -0.2886
 4714PW       W19076  10.325  10.497  11.938 -0.1047  0.1859  0.2131
 4714PW      WP19077  10.237  10.400  11.890 -0.0977  0.3178 -0.0807
 4714PW      WM19078  10.195  10.447  11.925  0.0035 -0.0023 -0.2908
 4715PW       W19079   9.302   8.772  11.229  0.4110 -0.1554  0.3747
 4715PW      WP19080   9.221   8.680  11.162 -0.1391  0.2897  0.3894
 4715PW      WM19081   9.358   8.900  11.230 -0.0325  0.0567  0.0141
 4716PW       W19082   6.434  10.059  10.850  0.1092 -0.1514  0.5235
 4716PW      WP19083   6.502   9.945  10.894  0.1616 -0.2862  0.1136
 4716PW      WM19084   6.503  10.179  10.871 -0.0469  0.0640 -0.1019
 4717PW       W19085   5.947   7.139   0.979 -0.0341 -0.2662 -0.1483
 4717PW      WP19086   6.077   7.185   0.956  0.0071 -0.3714 -0.1292
 4717PW      WM19087   5.882   7.189   1.093  0.2197 -0.3573  0.0413
 4718PW       W19088   0.625  10.197   1.703 -0.3262 -0.1886 -0.1213
 4718PW      WP19089   0.584  10.195   1.569  0.4963  0.3868 -0.4208
 4718PW      WM19090   0.673  10.100   1.792  0.0392  0.3461  0.2988
 4719PW       W19091   8.705   5.885  10.435  0.0137 -0.1677  0.4113
 4719PW      WP19092   8.719   6.016  10.480  0.0322 -0.0272  0.0170
 4719PW      WM19093   8.794   5.777  10.420  0.1437  0.0025 -0.1876
 4720PW       W19094   4.241   7.045   4.987  0.1686 -0.2119 -0.0428
 4720PW      WP19095   4.159   7.158   4.979  0.2762 -0.1449 -0.2466
 4720PW      WM19096   4.113   6.992   5.008 -0.0501  0.3392  0.0925
 4721PW       W19097   9.032  11.202   3.727 -0.5711 -0.0379  0.1624
 4721PW      WP19098   9.053  11.126   3.843 -0.0368  0.2473  0.2684
 4721PW      WM19099   8.989  11.260   3.608  0.2518  0.0882 -0.1039
 4722PW       W19100   6.707   7.780  13.117  0.8231 -0.0967  0.0809
 4722PW      WP19101   6.662   7.649  13.138 -0.1111  0.0442 -0.6756
 4722PW      WM19102   6.775   7.811  12.998  0.1668  0.1395 -0.2613
 4723PW       W19103   4.637   0.686   1.780  0.1270  0.2266 -0.6634
 4723PW      WP19104   4.656   0.824   1.764  0.5523  0.3080  0.2442
 4723PW      WM19105   4.680   0.553   1.770  0.0174  0.1178  0.0458
 4724PW       W19106   4.166   7.980  11.077  0.1568  0.2870 -0.0968
 4724PW      WP19107   4.081   7.895  11.005  0.5645 -0.1545 -0.0824
 4724PW      WM19108   4.101   8.100  11.107 -0.3297 -0.0412  0.2395
 4725PW       W19109   3.742  11.950   0.671  0.0341  0.1276  0.3378
 4725PW      WP19110   3.859  11.929   0.746  0.1772 -0.0034  0.0840
 4725PW      WM19111   3.637  11.961   0.763 -0.1308  0.0640  0.1608
 4726PW       W19112   7.441   5.436   9.356  0.1239  0.1392 -0.2247
 4726PW      WP19113   7.509   5.420   9.234 -0.2750  0.1032 -0.4483
 4726PW      WM19114   7.570   5.465   9.402  0.2184 -0.6766  0.1119
 4727PW       W19115   1.523   3.163   1.294  0.1847  0.0960 -0.4844
 4727PW      WP19116   1.461   3.047   1.243  0.0378 -0.1945  0.2882
 4727PW      WM19117   1.618   3.223   1.211  0.1072  0.0975 -0.5737
 4728PW       W19118   5.382   7.986  11.923  0.0973 -0.2994  0.0532
 4728PW      WP19119   5.421   8.053  11.806 -0.1801  0.1045  0.1777
 4728PW      WM19120   5.244   8.005  11.944  0.1259  0.2390 -0.1532
 4729PW       W19121  11.866   2.948   4.232  0.0424  0.0280  0.1467
 4729PW      WP19122  11.833   3.084   4.231 -0.2915 -0.0430 -0.3458
 4729PW      WM19123  11.799   2.840   4.171 -0.4438  0.3540  0.0776
 4730PW       W19124  10.853  10.460  12.089  0.4188  0.0622 -0.0308
 4730PW      WP19125  10.931  10.345  12.104  0.4628  0.0676 -0.2028
 4730PW      WM19126  10.801  10.553  12.180  0.1709 -0.4875  0.4195
 4731PW       W19127   9.432   0.866   4.954  0.1714  0.0498 -0.3422
 4731PW      WP19128   9.374   0.990   4.980 -0.3298 -0.3176  0.4836
 4731PW      WM19129   9.351   0.752   4.952 -0.1335  0.2575 -0.1383
 4732PW       W19130   9.127   7.440  11.823 -0.1364 -0.1861  0.3671
 4732PW      WP19131   9.062   7.564  11.822  0.2710  0.0362  0.0723
 4732PW      WM19132   9.021   7.362  11.870  0.1319 -0.6373  0.2520
 4733PW       W19133   6.982  11.026  12.262  0.0860  0.3210  0.3663
 4733PW      WP19134   6.851  10.989  12.293  0.2030 -0.3072  0.1873
 4733PW      WM19135   6.963  11.136  12.177 -0.1567  0.1142  0.1456
 4734PW       W19136   4.233   9.003   2.629  0.3650  0.0947  0.2146
 4734PW      WP19137   4.113   8.944   2.670  0.3606  0.0965  0.2048
 4734PW      WM19138   4.324   8.913   2.571 -0.0301  0.0344 -0.3535
 4735PW       W19139   2.775   6.562  10.908  0.6530  0.2291  0.1871
 4735PW      WP19140   2.757   6.659  10.809  0.0312  0.0971  0.1500
 4735PW      WM19141   2.783   6.488  11.027 -0.3543 -0.1833  0.0464
 4736PW       W19142   6.846   9.628   2.830  0.0880 -0.1828 -0.1295
 4736PW      WP19143   6.745   9.574   2.910  0.0970 -0.2156 -0.1402
 4736PW      WM19144   6.983   9.656   2.840  0.2238 -0.7689 -0.1969
 4737PW       W19145   3.475  11.981   8.702 -0.0228  0.1684 -0.0259
 4737PW      WP19146   3.586  12.054   8.656  0.1444 -0.0445  0.0326
 4737PW      WM19147   3.371  12.068   8.666 -0.4724 -0.2596  0.1771
 4738PW       W19148   2.822  10.206  11.983  0.0555 -0.3424 -0.1179
 4738PW      WP19149   2.904  10.205  12.096  0.0307 -0.1023 -0.0962
 4738PW      WM19150   2.892  10.163  11.870 -0.1664 -0.4441 -0.2203
 4739PW       W19151   3.902   1.447  12.098  0.3759  0.2374  0.1045
 4739PW      WP19152   3.844   1.514  11.988  0.3861 -0.1214 -0.1271
 4739PW      WM19153   3.929   1.325  12.035  0.2318  0.0917  0.3209
 4740PW       W19154   2.580   7.220   0.063  0.5693  0.0218  0.1380
 4740PW      WP19155   2.480   7.314   0.035 -0.1679 -0.7264  0.0801
 4740PW      WM19156   2.468   7.292   0.021  0.4704 -0.2852 -0.1467
 4741PW       W19157   6.664   4.545   0.650  0.1070  0.3172 -0.3723
 4741PW      WP19158   6.533   4.574   0.612 -0.1149  0.1163  0.1886
 4741PW      WM19159   6.671   4.599   0.779 -0.2612  0.0664 -0.2395
 4742PW       W19160   4.961   3.904   4.438 -0.4957 -0.2443  0.2351
 4742PW      WP19161   4.935   3.791   4.517 -0.0956 -0.5469 -0.0452
 4742PW      WM19162   4.982   3.854   4.309  0.3039  0.0280  0.2335
 4743PW       W19163   7.187   2.405   9.424 -0.0608 -0.3096 -0.1508
 4743PW      WP19164   7.302   2.485   9.426 -0.1608 -0.1645 -0.1366
 4743PW      WM19165   7.079   2.345   9.489 -0.5718  0.5119 -0.1759
 4744PW       W19166  11.599   9.747  10.313  0.1557  0.1166  0.0518
 4744PW      WP19167  11.474   9.684  10.310  0.2785 -0.2049  0.7091
 4744PW      WM19168  11.592   9.802  10.442 -0.1183  0.0230  0.0795
 4745PW       W19169   5.773  10.298   2.657  0.5404  0.4517  0.1880
 4745PW      WP19170   5.735  10.305   2.792 -0.3010 -0.1486  0.0175
 4745PW      WM19171   5.711  10.263   2.537  0.3549  0.3169  0.3215
 4746PW       W19172  11.725   1.876   0.277  0.0105 -0.1069  0.2660
 4746PW      WP19173  11.676   1.841   0.151 -0.2408  0.2578  0.2542
 4746PW      WM19174  11.597   1.928   0.301  0.1659  0.2936  0.2765
 4747PW       W19175   4.934   8.707   3.738 -0.0149 -0.5168 -0.3478
 4747PW      WP19176   5.024   8.599   3.739 -0.1603 -0.6420  0.0364
 4747PW      WM19177   4.817   8.684   3.811 -0.1019  0.4454 -0.1136
 4748PW       W19178   9.861  10.094   9.673  0.0983 -0.0877 -0.2384
 4748PW      WP19179   9.822  10.165   9.787  0.6121 -0.5943  0.2886
 4748PW      WM19180   9.806  10.069   9.547  0.0293  0.2339 -0.2773
 4749PW       W19181   7.697   1.289   2.834  0.3951  0.1724  0.1829
 4749PW      WP19182   7.771   1.358   2.931  0.2784  0.0424  0.3685
 4749PW      WM19183   7.681   1.320   2.698  0.1988  0.1113  0.1901
 4750PW       W19184   1.639   9.054   3.249  0.1989  0.4360 -0.0963
 4750PW      WP19185   1.611   9.116   3.371 -0.4740  0.3636 -0.1987
 4750PW      WM19186   1.713   8.937   3.273 -0.3952  0.0455 -0.0628
 4751PW       W19187   9.138   6.033   2.827 -0.0534 -0.2021 -0.2870
 4751PW      WP19188   9.037   6.072   2.738  0.1374  0.0382 -0.4037
 4751PW      WM19189   9.260   6.055   2.893 -0.1121 -0.2030 -0.1760
 4752PW       W19190   2.640  10.354   9.014  0.1982  0.0476  0.1207
 4752PW      WP19191   2.637  10.303   8.883 -0.1256 -0.1718  0.2097
 4752PW      WM19192   2.572  10.267   9.100  0.0991  0.2674  0.2656
 4753PW       W19193   0.046   9.326   1.950  0.2880  0.0863  0.4412
 4753PW      WP19194   0.102   9.217   1.883  0.1746  0.2989 -0.0211
 4753PW      WM19195   0.098   9.224   2.031  0.0603 -0.2347  0.1978
 4754PW       W19196   6.140   4.820  12.184  0.1835  0.7174 -0.2216
 4754PW      WP19197   6.119   4.803  12.046  0.0674  0.1081 -0.1436
 4754PW      WM19198   6.218   4.898  12.271  0.5213  0.2342 -0.0715
 4755PW       W19199  11.666   7.361  10.128  0.0365 -0.9231  0.0257
 4755PW      WP19200  11.576   7.293  10.045 -0.3458 -0.0464 -0.3424
 4755PW      WM19201  11.679   7.410  10.258 -0.5454  0.4087 -0.3304
 4756PW       W19202   1.543   8.975  12.330  0.2944 -0.0745  0.1639
 4756PW      WP19203   1.633   8.968  12.437  0.2953 -0.0117  0.1673
 4756PW      WM19204   1.414   8.940  12.290  0.2433  0.3336 -0.0602
 4757PW       W19205  11.858   3.078  11.564 -0.5124  0.1016 -0.3420
 4757PW      WP19206  11.876   3.093  11.426 -0.0212  0.0932 -0.2848
 4757PW      WM19207  11.827   2.981  11.660 -0.2198 -0.1255 -0.4717
 4758PW       W19208  12.173   0.833   0.048  0.0773 -0.1175 -0.0050
 4758PW      WP19209  12.051   0.774   0.086  0.1029 -0.2722 -0.1601
 4758PW      WM19210  12.171   0.816  -0.091  0.1147 -0.7399  0.0589
 4759PW       W19211   2.242  10.621   5.503  0.3446  0.0954 -0.1914
 4759PW      WP19212   2.200  10.751   5.472 -0.3534  0.0624  0.4583
 4759PW      WM19213   2.239  10.540   5.389  0.2166 -0.3601  0.1195
 4760PW       W19214   7.465   8.704   0.442  0.0894  0.1570  0.0736
 4760PW      WP19215   7.546   8.818   0.446 -0.0814  0.2880 -0.1359
 4760PW      WM19216   7.577   8.633   0.486 -0.0692 -0.0485  0.1560
 4761PW       W19217   6.053   4.125   0.137  0.0968 -0.1256 -0.1386
 4761PW      WP19218   6.014   4.204   0.029  0.4179 -0.3742 -0.4494
 4761PW      WM19219   6.132   4.155   0.249  0.1202  0.2559 -0.2497
 4762PW       W19220   2.465   0.653  10.690  0.0526  0.2683 -0.2422
 4762PW      WP19221   2.559   0.573  10.623 -0.3418 -0.1658 -0.3102
 4762PW      WM19222   2.503   0.786  10.674  0.6334  0.1798  0.2403
 4763PW       W19223   9.105   3.187  12.327 -0.0876 -0.0672 -0.2310
 4763PW      WP19224   9.169   3.113  12.427 -0.0923  0.0387 -0.1476
 4763PW      WM19225   9.085   3.296  12.413 -0.3769 -0.1308 -0.2139
 4764PW       W19226  10.577   5.069   1.380  0.5729  0.5245  0.1285
 4764PW      WP19227  10.464   5.099   1.457  0.0967  0.0216 -0.3303
 4764PW      WM19228  10.560   4.961   1.293 -0.7135  0.8030 -0.0655
 4765PW       W19229   8.590   9.982   9.807 -0.0700  0.1322  0.5044
 4765PW      WP19230   8.613  10.025   9.676  0.3653 -0.6580  0.2917
 4765PW      WM19231   8.666   9.985   9.925  0.3604  0.0000  0.2397
 4766PW       W19232   4.274   2.493   2.106 -0.1771 -0.1369 -0.2813
 4766PW      WP19233   4.260   2.370   2.170  0.0859 -0.1227 -0.1924
 4766PW      WM19234   4.263   2.632   2.122  0.6102 -0.0973  0.1990
 4767PW       W19235   8.894  10.928   9.726 -0.6859  0.4133 -0.0855
 4767PW      WP19236   8.868  10.807   9.792 -0.1774  0.1051 -0.4159
 4767PW      WM19237   9.000  11.018   9.716 -0.3237  0.0454  0.2764
 4768PW       W19238  11.942  10.428   3.969 -0.1127  0.0892  0.2392
 4768PW      WP19239  11.939  10.304   3.905 -0.0982  0.3736 -0.3496
 4768PW      WM19240  12.037  10.475   3.878 -0.2222 -0.4408 -0.1715
 4769PW       W19241  12.004   5.048   3.495 -0.2786  0.4186  0.0299
 4769PW      WP19242  12.073   5.117   3.395 -0.1643 -0.0043 -0.1927
 4769PW      WM19243  12.098   5.057   3.599 -0.5535 -0.0323  0.3342
 4770PW       W19244   0.458   1.415   1.485  0.0687 -0.2327  0.2722
 4770PW      WP19245   0.536   1.506   1.413 -0.2216 -0.0048  0.2388
 4770PW      WM19246   0.519   1.297   1.440 -0.1225 -0.1551 -0.2266
 4771PW       W19247   8.863   5.643   9.544 -0.1462  0.1856 -0.0242
 4771PW      WP19248   8.780   5.535   9.508  0.2917 -0.1911  0.0486
 4771PW      WM19249   8.846   5.782   9.546  0.1487  0.2329  0.8069
 4772PW       W19250   9.033   3.257   0.142  0.3163 -0.3141 -0.1353
 4772PW      WP19251   9.106   3.253   0.261  0.2171  0.1722 -0.0486
 4772PW      WM19252   9.129   3.331   0.073 -0.1140  0.7218  0.2704
 4773PW       W19253  10.157   3.709   0.563 -0.0694  0.0419 -0.1076
 4773PW      WP19254  10.026   3.734   0.520 -0.0312  0.1662 -0.1557
 4773PW      WM19255  10.202   3.732   0.693 -0.1764 -0.3621  0.0059
 4774PW       W19256   3.284   3.332  10.810  0.1062 -0.1862  0.0191
 4774PW      WP19257   3.302   3.314  10.672  0.4481 -0.1123  0.0520
 4774PW      WM19258   3.290   3.308  10.948 -0.2070 -0.4352 -0.0032
 4775PW       W19259   0.746   6.675  13.110  0.1771  0.1532 -0.0310
 4775PW      WP19260   0.721   6.769  13.211  0.3524 -0.0836  0.2416
 4775PW      WM19261   0.670   6.737  13.010 -0.0367 -0.6329 -0.4007
 4776PW       W19262   0.358   5.353  11.359 -0.2405 -0.2349 -0.0639
 4776PW      WP19263   0.488   5.404  11.372 -0.2532  0.0618 -0.8512
 4776PW      WM19264   0.298   5.352  11.233  0.1367 -0.0229 -0.2526
 4777PW       W19265  11.006   3.562   4.566  0.1888 -0.0205  0.1256
 4777PW      WP19266  10.956   3.594   4.439 -0.6835 -0.4144  0.3305
 4777PW      WM19267  10.897   3.645   4.595 -0.2283 -0.5517  0.1450
 4778PW       W19268   6.194   1.737   2.053  0.4737  0.1668 -0.5906
 4778PW      WP19269   6.082   1.684   2.119  0.6815  0.1206 -0.2608
 4778PW      WM19270   6.144   1.807   1.943  0.0040 -0.0192 -0.5044
 4779PW       W19271   5.248   9.895   2.709  0.3064  0.0080  0.1861
 4779PW      WP19272   5.189   9.929   2.831 -0.3251  0.4765 -0.2204
 4779PW      WM19273   5.147   9.988   2.683 -0.2305 -0.6479 -0.2719
 4780PW       W19274  10.175   2.810   0.142 -0.4711  0.2117 -0.2412
 4780PW      WP19275  10.127   2.699   0.072 -1.0020  0.2141  0.0893
 4780PW      WM19276  10.232   2.684   0.164 -0.4222  0.2499 -0.1437
 4781PW       W19277   1.565   2.160   9.823 -0.4136 -0.2675 -0.1267
 4781PW      WP19278   1.588   2.229   9.943 -0.3096 -0.8730  0.2208
 4781PW      WM19279   1.652   2.068   9.883  0.2517  0.2657 -0.2166
 4782PW       W19280   8.191   2.730   1.363 -0.1895 -0.0293  0.0085
 4782PW      WP19281   8.054   2.699   1.357 -0.1837 -0.0079 -0.4752
 4782PW      WM19282   8.273   2.837   1.326 -0.2492  0.0848  0.2006
 4783PW       W19283   4.309   2.278  11.361  0.1856  0.1676  0.1509
 4783PW      WP19284   4.181   2.224  11.349  0.3258 -0.0919 -0.2994
 4783PW      WM19285   4.359   2.189  11.457  0.3408 -0.2098 -0.2617
 4784PW       W19286   9.761   6.699   9.850  0.1296 -0.0647  0.2003
 4784PW      WP19287   9.750   6.756   9.977 -0.2915  0.6430 -0.1257
 4784PW      WM19288   9.647   6.639   9.904  0.0614 -0.3406 -0.2238
 4785PW       W19289   7.702   6.561  11.702 -0.2687  0.0568  0.1509
 4785PW      WP19290   7.572   6.602  11.670 -0.1802  0.0816 -0.1958
 4785PW      WM19291   7.814   6.478  11.703  0.0875  0.5030 -0.2758
 4786PW       W19292   3.636   3.067   9.544 -0.0080 -0.4367 -0.2455
 4786PW      WP19293   3.757   3.087   9.477  0.0256  0.1639 -0.0366
 4786PW      WM19294   3.714   3.087   9.659  0.1742  0.2629 -0.4675
 4787PW       W19295   4.743   3.697   0.767  0.2197 -0.1046  0.3375
 4787PW      WP19296   4.659   3.808   0.775  0.2349 -0.0752  0.1306
 4787PW      WM19297   4.638   3.616   0.723  0.2005  0.0145  0.1603
 4788PW       W19298   1.705   3.099   3.135 -0.1035 -0.2449 -0.1955
 4788PW      WP19299   1.807   3.053   3.219 -0.1851  0.0395  0.0654
 4788PW      WM19300   1.735   3.222   3.075  0.4598 -0.1336  0.2703
 4789PW       W19301   1.300   4.952  13.209 -0.3537  0.1541  0.3542
 4789PW      WP19302   1.426   4.948  13.270 -0.0136 -0.4801 -0.3125
 4789PW      WM19303   1.275   4.954  13.071  0.3180 -0.2729  0.2015
 4790PW       W19304   0.264   2.902   0.923  0.0296  0.3097  0.1160
 4790PW      WP19305   0.187   2.888   1.039 -0.2077  0.1568 -0.0558
 4790PW      WM19306   0.309   3.032   0.950  0.0451  0.2711  0.2801
 4791PW       W19307  11.192   2.822   8.717 -0.3241  0.0974 -0.2347
 4791PW      WP19308  11.254   2.840   8.593 -0.5446  0.3188 -0.3173
 4791PW      WM19309  11.118   2.709   8.753 -0.0494  0.0567  0.2456
 4792PW       W19310   9.570   6.581  12.907  0.1939 -0.6033 -0.0531
 4792PW      WP19311   9.431   6.571  12.915  0.0459  0.2289 -0.8378
 4792PW      WM19312   9.529   6.686  12.825 -0.8604 -0.9065  0.0155
 4793PW       W19313  10.777   7.107  10.743 -0.0316 -0.2802  0.0669
 4793PW      WP19314  10.765   6.973  10.704  0.0279 -0.3682  0.3387
 4793PW      WM19315  10.682   7.013  10.784  0.2527 -0.5477  0.1335
 4794PW       W19316  10.796   0.290   1.319  0.3589 -0.0529  0.2468
 4794PW      WP19317  10.905   0.344   1.251  0.3181  0.0200  0.2392
 4794PW      WM19318  10.760   0.193   1.413  0.0715 -0.0915  0.1031
 4795PW       W19319   8.012   5.579  11.758 -0.0279 -0.0436  0.0525
 4795PW      WP19320   7.986   5.677  11.661  0.2663  0.4355  0.4324
 4795PW      WM19321   8.127   5.635  11.815 -0.0587 -0.2452  0.3178
 4796PW       W19322   6.533  12.068   2.007  0.0033  0.3198  0.3088
 4796PW      WP19323   6.548  11.994   2.125  0.2980 -0.0465  0.0536
 4796PW      WM19324   6.404  12.115   1.977  0.0741  0.6414  0.4866
 4797PW       W19325   7.621   6.461   5.400 -0.2687  0.3166  0.4991
 4797PW      WP19326   7.685   6.581   5.365 -0.0553  0.1684  0.3734
 4797PW      WM19327   7.590   6.350   5.321 -0.0778  0.4533  0.2268
 4798PW       W19328   6.934   9.406   0.052 -0.5376  0.2043  0.3214
 4798PW      WP19329   6.935   9.539   0.097 -0.2556  0.1504  0.4890
 4798PW      WM19330   6.928   9.306   0.150 -0.3630 -0.4625 -0.3088
 4799PW       W19331   2.759   8.794  10.834  0.2496 -0.0777 -0.0221
 4799PW      WP19332   2.630   8.757  10.795  0.0181  0.1660  0.4641
 4799PW      WM19333   2.839   8.700  10.768 -0.1172 -0.2863 -0.1843
 4800PW       W19334  11.418   1.705  11.891  0.2828 -0.0743  0.4497
 4800PW      WP19335  11.386   1.839  11.917  0.0139 -0.0242 -0.0619
 4800PW      WM19336  11.499   1.738  11.782 -0.1777  0.0422  0.1231
 4801PW       W19337   0.327   7.621   3.027  0.0657  0.1171  0.0265
 4801PW      WP19338   0.384   7.651   3.151 -0.4118 -0.3058  0.3699
 4801PW      WM19339   0.405   7.512   2.988  0.0996  0.2596 -0.3259
 4802PW       W19340   8.902   4.572   8.343  0.0581 -0.0314 -0.3077
 4802PW      WP19341   8.949   4.522   8.465 -0.2619  0.9031  0.2486
 4802PW      WM19342   8.763   4.552   8.335  0.0765 -0.3530  0.0204
 4803PW       W19343   3.991  12.038   4.021  0.0706 -0.2426 -0.4317
 4803PW      WP19344   4.063  12.152   3.984 -0.0215  0.0436  0.1922
 4803PW      WM19345   4.015  11.922   4.097  0.4138 -0.1765 -0.4303
 4804PW       W19346   3.041  10.994   9.313  0.0241  0.7491  0.4777
 4804PW      WP19347   3.122  11.078   9.236  0.4900 -0.1672 -0.1194
 4804PW      WM19348   2.967  10.958   9.426  0.2042  0.2083  0.4383
 4805PW       W19349   9.274   0.688   1.145 -0.1478 -0.1118  0.1559
 4805PW      WP19350   9.183   0.758   1.065 -0.0976  0.0989  0.2791
 4805PW      WM19351   9.308   0.824   1.140 -0.2073 -0.1003  0.0487
 4806PW       W19352   4.969   9.044   8.015 -0.1953 -0.0849 -0.0938
 4806PW      WP19353   5.078   9.032   8.101 -0.0841  0.1073 -0.2055
 4806PW      WM19354   5.097   9.098   8.026 -0.2126  0.0062 -0.3134
 4807PW       W19355   7.934   9.168  13.175  0.0723 -0.2840  0.4928
 4807PW      WP19356   7.842   9.204  13.274  0.1680  0.5478  0.3160
 4807PW      WM19357   7.856   9.265  13.112  0.1703 -0.2736  0.3863
 4808PW       W19358   7.859  12.027   4.216 -0.2733  0.0844  0.2063
 4808PW      WP19359   7.826  11.931   4.312 -0.3991 -0.2324 -0.1406
 4808PW      WM19360   7.753  12.080   4.291 -0.1124  0.4974  0.1563
 4809PW       W19361   3.259   9.543  10.485  0.4209 -0.0917 -0.1772
 4809PW      WP19362   3.199   9.603  10.596  0.2498 -0.2863 -0.1622
 4809PW      WM19363   3.190   9.546  10.364 -0.3218  0.2398  0.2193
 4810PW       W19364   9.582   4.331   9.737  0.4377  0.4471 -0.1894
 4810PW      WP19365   9.709   4.361   9.687  0.8109 -0.8898 -0.2242
 4810PW      WM19366   9.708   4.333   9.798  0.2717  0.0877  0.1936
 4811PW       W19367   2.802   5.699  10.510  0.3479  0.0029  0.2388
 4811PW      WP19368   2.919   5.765  10.549  0.0721  0.5847  0.1421
 4811PW      WM19369   2.757   5.637  10.628 -0.2189  0.2190  0.1551
 4812PW       W19370   2.786   8.217   0.173 -0.4958 -0.6128 -0.0001
 4812PW      WP19371   2.699   8.254   0.276 -0.1520 -0.5792  0.2849
 4812PW      WM19372   2.899   8.164   0.110 -0.2738  0.1308 -0.2852
 4813PW       W19373   4.577   4.151   0.497  0.1130  0.1278 -0.0685
 4813PW      WP19374   4.650   4.100   0.390  0.1944  0.4723 -0.1838
 4813PW      WM19375   4.502   4.062   0.576  0.2923 -0.1013 -0.1539
 4814PW       W19376   2.024   8.097   9.704  0.4040 -0.0223  0.0922
 4814PW      WP19377   1.920   8.083   9.796 -0.3478 -0.5378 -0.7559
 4814PW      WM19378   2.093   8.169   9.606 -0.3956  0.0967 -0.4268
 4815PW       W19379   4.182   7.870  13.248 -0.2277 -0.1627  0.1496
 4815PW      WP19380   4.048   7.847  13.279 -0.2622 -0.1895 -0.0113
 4815PW      WM19381   4.205   7.897  13.112 -0.1621 -0.1928  0.1544
 4816PW       W19382   9.948   6.507   9.399  0.0414 -0.1329  0.1848
 4816PW      WP19383   9.887   6.392   9.451  0.1150 -0.1088  0.3267
 4816PW      WM19384   9.960   6.447   9.273 -0.0010 -0.2231  0.2230
 4817PW       W19385   1.260   4.367  13.107 -0.3846  0.0793  0.1958
 4817PW      WP19386   1.343   4.317  13.208  0.0429  0.2471 -0.0588
 4817PW      WM19387   1.251   4.372  13.247 -0.1948 -0.1112  0.2168
 4818PW       W19388   4.016   5.502  12.934  0.0301  0.0760  0.3911
 4818PW      WP19389   4.141   5.469  12.986  0.3521  0.3346 -0.1762
 4818PW      WM19390   4.075   5.504  13.061  0.1929  0.0509  0.3166
 4819PW       W19391   8.188   8.847   3.048  0.0805 -0.1972 -0.1424
 4819PW      WP19392   8.239   8.851   2.918 -0.3063 -0.0292 -0.2990
 4819PW      WM19393   8.126   8.724   3.071 -0.1155 -0.1294 -0.2886
 4820PW       W19394  10.941  12.096   8.310  0.3397 -0.1517 -0.1904
 4820PW      WP19395  11.000  11.997   8.230 -0.2688 -0.2923 -0.5021
 4820PW      WM19396  10.998  12.051   8.429  0.2365 -0.2683 -0.1842
 4821PW       W19397   5.839   1.261   0.583  0.3366 -0.0560 -0.2294
 4821PW      WP19398   5.974   1.249   0.619  0.2028 -0.1002  0.3114
 4821PW      WM19399   5.881   1.193   0.468  0.2036 -0.1461 -0.2252
 4822PW       W19400   9.252  11.449   0.485  0.1667 -0.1032  0.2635
 4822PW      WP19401   9.337  11.353   0.543  0.1500 -0.2189  0.0994
 4822PW      WM19402   9.183  11.353   0.411  0.4519 -0.1353  0.0308
 4823PW       W19403   4.306   0.631   9.182 -0.1004  0.5694  0.0817
 4823PW      WP19404   4.183   0.571   9.152  0.3147 -0.0545 -0.5365
 4823PW      WM19405   4.250   0.756   9.153 -0.0095  0.5623 -0.1348
 4824PW       W19406  10.804   2.164   1.313 -0.5854 -0.2425  0.3588
 4824PW      WP19407  10.694   2.078   1.318 -0.5957 -0.2395  0.2155
 4824PW      WM19408  10.764   2.233   1.429 -0.1816 -0.2086  0.4867
 4825PW       W19409   5.939   6.403  13.117 -0.0710  0.0935 -0.1184
 4825PW      WP19410   5.898   6.342  13.236 -0.3001  0.4518 -0.0033
 4825PW      WM19411   5.909   6.532  13.164 -0.0264  0.1063 -0.1248
 4826PW       W19412  11.128   4.801   9.226  0.0644 -0.0674  0.4113
 4826PW      WP19413  11.085   4.930   9.192 -0.3788 -0.1641  0.5759
 4826PW      WM19414  11.024   4.755   9.307 -0.1257  0.2235  0.3369
 4827PW       W19415   8.386   6.469   0.303  0.0326  0.0168  0.0064
 4827PW      WP19416   8.341   6.402   0.189  0.1018  0.0749 -0.0559
 4827PW      WM19417   8.525   6.481   0.314  0.0294  0.1352 -0.0726
 4828PW       W19418  12.180   8.674   2.715 -0.5782  0.0571  0.0221
 4828PW      WP19419  12.114   8.677   2.592 -0.2091 -0.2568 -0.1941
 4828PW      WM19420  12.139   8.770   2.809 -0.2304  0.2509 -0.0167
 4829PW       W19421   2.286   1.929   4.540  0.2424  0.2399  0.1537
 4829PW      WP19422   2.235   2.048   4.593 -0.1266  0.1975 -0.0870
 4829PW      WM19423   2.322   1.800   4.501  0.6458  0.3563  0.1174
 4830PW       W19424   6.671  11.809   2.853 -0.2584 -0.1595  0.2733
 4830PW      WP19425   6.626  11.882   2.963 -0.1489 -0.0313  0.2336
 4830PW      WM19426   6.709  11.798   2.719  0.1835 -0.0517  0.3809
 4831PW       W19427   1.409   3.913   0.777  0.0212 -0.1171 -0.2243
 4831PW      WP19428   1.289   3.952   0.838  0.4489  0.2606  0.4322
 4831PW      WM19429   1.403   3.999   0.667  0.1585 -0.2820 -0.3643
 4832PW       W19430   9.162  11.087   0.204  0.1710 -0.6259  0.0757
 4832PW      WP19431   9.172  11.206   0.277 -0.2575 -0.3351 -0.3076
 4832PW      WM19432   9.028  11.103   0.241  0.3408  0.0851  0.4909
 4833PW       W19433   7.700  11.610   2.314  0.0671  0.2705  0.2267
 4833PW      WP19434   7.781  11.608   2.200 -0.0305 -0.7427  0.1327
 4833PW      WM19435   7.660  11.530   2.422  0.1591  0.5351  0.4622
 4834PW       W19436   9.377   1.187  11.698  0.2776  0.3902 -0.0694
 4834PW      WP19437   9.483   1.127  11.629 -0.0604 -0.1165 -0.1749
 4834PW      WM19438   9.263   1.264  11.671 -0.1696 -0.1435  0.2056
 4835PW       W19439   7.587   4.868  12.329  0.2773 -0.0858 -0.1867
 4835PW      WP19440   7.704   4.916  12.389  0.0569 -0.0618  0.2418
 4835PW      WM19441   7.450   4.894  12.322  0.2995  0.1010  0.0358
 4836PW       W19442  11.497   3.560   2.922  0.2718  0.3093  0.1423
 4836PW      WP19443  11.614   3.561   2.845  0.1397 -0.2534 -0.0886
 4836PW      WM19444  11.414   3.493   3.012  0.1944  0.0419 -0.1229
 4837PW       W19445   8.179   2.104   3.583  0.0151  0.0565  0.1004
 4837PW      WP19446   8.094   2.033   3.670 -0.5243  0.4063 -0.1173
 4837PW      WM19447   8.207   1.970   3.615  0.0683  0.0594  0.0665
 4838PW       W19448   2.440   4.280  10.470  0.0962  0.2988  0.3452
 4838PW      WP19449   2.452   4.350  10.590  0.1472  0.0647  0.4793
 4838PW      WM19450   2.569   4.330  10.450  0.1576  0.0899  0.2022
 4839PW       W19451   6.913   8.357  12.697 -0.2856  0.0006  0.1044
 4839PW      WP19452   6.950   8.228  12.740 -0.1167  0.0341  0.0639
 4839PW      WM19453   6.798   8.333  12.773 -0.2956  0.1752  0.1452
 4840PW       W19454   0.171   7.579  10.304  0.1353  0.0742  0.1544
 4840PW      WP19455   0.306   7.586  10.341  0.1391  0.3439  0.1027
 4840PW      WM19456   0.075   7.595  10.203  0.3507  0.2500 -0.0275
 4841PW       W19457   4.168   7.656  10.733  0.1894 -0.4856 -0.4724
 4841PW      WP19458   4.046   7.592  10.756 -0.0304 -0.0037 -0.1937
 4841PW      WM19459   4.090   7.773  10.732  0.4450 -0.3082 -0.3727
 4842PW       W19460   3.134   3.385  11.360 -0.7441 -0.2898  0.4298
 4842PW      WP19461   3.244   3.307  11.321 -0.5480  0.2372 -0.1620
 4842PW      WM19462   3.071   3.445  11.251  0.2156 -0.1722 -0.1184
 4843PW       W19463  11.778   4.227   8.383 -0.1091 -0.0103  0.1597
 4843PW      WP19464  11.743   4.338   8.461 -0.1839 -0.0430  0.1736
 4843PW      WM19465  11.831   4.108   8.331  0.2496  0.2467 -0.0872
 4844PW       W19466   3.869   2.180   0.129 -0.5158 -0.0669 -0.1626
 4844PW      WP19467   3.996   2.147   0.080 -0.4234 -0.0619  0.0703
 4844PW      WM19468   3.818   2.052   0.156 -0.1690 -0.2893 -0.5014
 4845PW       W19469   3.627   0.830   3.450 -0.1739 -0.3148 -0.3951
 4845PW      WP19470   3.764   0.801   3.444 -0.0738  0.0469 -0.0848
 4845PW      WM19471   3.687   0.947   3.402 -0.2282 -0.0891  0.0604
 4846PW       W19472   8.034   2.256   4.084  0.2566 -0.1348 -0.0265
 4846PW      WP19473   8.025   2.135   4.014 -0.0109 -0.0430 -0.1576
 4846PW      WM19474   8.133   2.352   4.105  0.1009  0.0031  0.0851
 4847PW       W19475   9.783   0.483   2.086 -0.3313  0.1800  0.1132
 4847PW      WP19476   9.864   0.500   1.974 -0.2271  0.0218  0.1634
 4847PW      WM19477   9.851   0.493   2.208  0.6582 -0.6088 -0.3038
 4848PW       W19478   7.369   5.722  12.647  0.2266 -0.1928 -0.2638
 4848PW      WP19479   7.495   5.670  12.615  0.2223 -0.3917  0.0267
 4848PW      WM19480   7.234   5.754  12.629  0.1835 -0.4432 -0.4006
 4849PW       W19481  10.127   6.323   5.578  0.0066 -0.0429 -0.2941
 4849PW      WP19482  10.002   6.320   5.515 -0.1112 -0.0954 -0.0644
 4849PW      WM19483  10.221   6.239   5.639  0.0434  0.2574  0.0819
 4850PW       W19484   0.835   7.301   9.842 -0.3251  0.0605 -0.1021
 4850PW      WP19485   0.757   7.187   9.822 -0.1732 -0.0428 -0.1111
 4850PW      WM19486   0.860   7.170   9.884 -0.4601  0.0295 -0.1175
 4851PW       W19487  11.340   6.919   2.232  0.5084 -0.1101  0.2484
 4851PW      WP19488  11.321   7.019   2.136 -0.0793 -0.2190  0.2349
 4851PW      WM19489  11.270   6.894   2.114 -0.1774  0.2529  0.5479
 4852PW       W19490  11.524   3.823  12.125  0.3614  0.1163 -0.0213
 4852PW      WP19491  11.514   3.837  12.264  0.0347 -0.1453 -0.0131
 4852PW      WM19492  11.489   3.868  11.997  0.0626  0.5824  0.2107
 4853PW       W19493   7.045  10.386   0.975 -0.3297 -0.1093 -0.0705
 4853PW      WP19494   6.925  10.330   0.930 -0.2003 -0.4282 -0.0310
 4853PW      WM19495   7.044  10.413   0.837  0.4547  0.1563 -0.0502
 4854PW       W19496   9.888   4.446   3.708  0.0840 -0.1362 -0.0096
 4854PW      WP19497   9.919   4.498   3.834  0.6837 -0.3024 -0.0709
 4854PW      WM19498   9.965   4.342   3.762 -0.2831 -0.1550  0.5110
 4855PW       W19499   0.841   1.804   2.681  0.0670 -0.3990 -0.2392
 4855PW      WP19500   0.753   1.853   2.778  0.4582 -0.3727  0.1168
 4855PW      WM19501   0.918   1.920   2.681 -0.7892  0.2142 -0.1984
 4856PW       W19502  10.822   2.454  11.242  0.2203 -0.1667 -0.2198
 4856PW      WP19503  10.904   2.564  11.210 -0.0642  0.1659  0.1445
 4856PW      WM19504  10.788   2.573  11.177 -0.1128  0.0504  0.3229
 4857PW       W19505   1.992   4.405   2.884 -0.6608 -0.1065  0.2101
 4857PW      WP19506   2.051   4.296   2.820  0.2847  0.1493  0.5700
 4857PW      WM19507   2.079   4.479   2.802 -0.5624 -0.0935  0.3257
 4858PW       W19508   6.879   9.586   4.087  0.4219 -0.1473  0.1689
 4858PW      WP19509   6.906   9.717   4.130  0.1310  0.1216 -0.4013
 4858PW      WM19510   6.985   9.539   4.009  0.2037 -0.7014  0.1881
 4859PW       W19511   0.636   4.512  11.664  0.4182 -0.2407 -0.2875
 4859PW      WP19512   0.743   4.576  11.727  0.3036 -0.0968 -0.2359
 4859PW      WM19513   0.501   4.519  11.700  0.4604 -0.1603 -0.1403
 4860PW       W19514   2.060   0.220   5.142 -0.1688 -0.1058 -0.0739
 4860PW      WP19515   1.963   0.129   5.184 -0.0412 -0.2524 -0.0917
 4860PW      WM19516   2.174   0.197   5.221 -0.0421 -0.2443 -0.2888
 4861PW       W19517   7.967   9.088   3.450 -0.0110  0.3053 -0.1070
 4861PW      WP19518   7.906   8.970   3.405 -0.2900  0.4319 -0.0760
 4861PW      WM19519   7.897   9.174   3.535  0.2861  0.4642 -0.0182
 4862PW       W19520   4.091   8.026   4.641 -0.1522  0.1639  0.2071
 4862PW      WP19521   4.105   8.154   4.696  0.0969  0.1957  0.0736
 4862PW      WM19522   4.105   8.015   4.502 -0.0090  0.4337  0.1981
 4863PW       W19523   6.519  10.400   1.318 -0.0799 -0.3005  0.0462
 4863PW      WP19524   6.555  10.530   1.279 -0.0368 -0.1539  0.5428
 4863PW      WM19525   6.532  10.407   1.457 -0.0009 -0.2453  0.0363
 4864PW       W19526   6.646   3.320  13.351 -0.2048 -0.0985  0.2657
 4864PW      WP19527   6.537   3.249  13.299 -0.2149  0.2252 -0.1833
 4864PW      WM19528   6.543   3.335  13.257 -0.0018 -0.7238 -0.0855
 4865PW       W19529   3.670   1.897   4.292  0.3090 -0.5875 -0.0014
 4865PW      WP19530   3.683   1.765   4.246  0.4174 -0.5184 -0.1738
 4865PW      WM19531   3.665   1.981   4.404 -0.5469  0.2816 -0.6177
 4866PW       W19532   1.095   2.612  11.472 -0.1660 -0.4676  0.0510
 4866PW      WP19533   1.101   2.704  11.578  0.3931 -0.0746 -0.2973
 4866PW      WM19534   0.971   2.557  11.437 -0.3959 -0.2067  0.4192
 4867PW       W19535   9.681   1.231   9.951 -0.0344 -0.1649 -0.7021
 4867PW      WP19536   9.547   1.232   9.991 -0.0127  0.1598 -0.6162
 4867PW      WM19537   9.673   1.092   9.949  0.1222 -0.2038  0.0087
 4868PW       W19538  11.864  10.953   1.146  0.2976  0.1388  0.5808
 4868PW      WP19539  11.972  10.887   1.207  0.4991 -0.5159 -0.3701
 4868PW      WM19540  11.752  11.027   1.186 -0.1002  0.0869 -0.3175
 4869PW       W19541   7.231  10.181   9.844  0.3028  0.2118  0.2193
 4869PW      WP19542   7.212  10.319   9.860 -0.2615  0.1388  0.2653
 4869PW      WM19543   7.273  10.048   9.838  0.3947  0.2401  0.2191
 4870PW       W19544   6.886  11.126   1.999 -0.2012  0.0278 -0.0771
 4870PW      WP19545   6.933  10.998   2.028 -1.1027 -0.2760  0.2226
 4870PW      WM19546   6.853  11.233   2.083  0.0106  0.2595 -0.2802
 4871PW       W19547   5.135   3.220   2.487  0.3203 -0.0113 -0.0395
 4871PW      WP19548   5.158   3.091   2.536  0.1354  0.0297  0.1634
 4871PW      WM19549   5.185   3.215   2.356 -0.1237  0.1242 -0.2237
 4872PW       W19550   0.665   0.243   4.410  0.0659 -0.1567  0.0987
 4872PW      WP19551   0.794   0.194   4.384 -0.1066 -0.4780 -0.1904
 4872PW      WM19552   0.702   0.246   4.545 -0.0345 -0.2152  0.1271
 4873PW       W19553   5.097  11.910  11.567  0.2026  0.1290 -0.2919
 4873PW      WP19554   5.131  11.998  11.671 -0.0589 -0.0648 -0.0344
 4873PW      WM19555   5.023  11.956  11.458 -0.1103  0.2109 -0.0522
 4874PW       W19556   9.816   2.656   9.485 -0.3943  0.0507  0.0205
 4874PW      WP19557   9.942   2.655   9.547 -0.3103 -0.1671 -0.1475
 4874PW      WM19558   9.784   2.652   9.349 -0.2849  0.5625 -0.0310
 4875PW       W19559   0.422   1.696  12.026 -0.0323 -0.1217  0.4683
 4875PW      WP19560   0.548   1.638  12.006 -0.0347  0.0064  0.0314
 4875PW      WM19561   0.409   1.834  12.042 -0.2881 -0.0598 -0.1466
 4876PW       W19562   7.274   5.890   9.166 -0.1976  0.1514  0.1349
 4876PW      WP19563   7.174   5.835   9.247 -0.1638 -0.0349  0.0524
 4876PW      WM19564   7.392   5.866   9.237 -0.4114  0.0697  0.4764
 4877PW       W19565   7.073   1.230   5.322 -0.1031  0.5644 -0.1591
 4877PW      WP19566   6.948   1.168   5.334 -0.0596  0.3737 -0.5887
 4877PW      WM19567   7.143   1.174   5.214  0.6713  0.3623  0.4054
 4878PW       W19568   1.211   7.425   9.053 -0.0290  0.1408 -0.0081
 4878PW      WP19569   1.177   7.289   9.046  0.7460 -0.0586 -0.5593
 4878PW      WM19570   1.295   7.410   8.942 -0.1146 -0.0750 -0.0463
 4879PW       W19571   9.076   2.278   0.500 -0.5364 -0.5385 -0.2363
 4879PW      WP19572   9.101   2.357   0.387 -0.0257 -0.4617 -0.0853
 4879PW      WM19573   9.172   2.198   0.563 -0.5321  0.0924  0.6494
 4880PW       W19574   5.636   2.964  11.258 -0.1038  0.2511 -0.0545
 4880PW      WP19575   5.519   3.012  11.320 -0.1569  0.1876 -0.1049
 4880PW      WM19576   5.651   2.827  11.236  0.0227  0.3078 -0.3429
 4881PW       W19577   5.796   4.332   0.596  0.0134 -0.2470  0.1970
 4881PW      WP19578   5.787   4.200   0.642 -0.0848 -0.1360  0.5146
 4881PW      WM19579   5.685   4.410   0.632  0.0427 -0.2450  0.2849
 4882PW       W19580   1.225  12.027   9.416 -0.2005 -0.0021 -0.4882
 4882PW      WP19581   1.357  12.013   9.371  0.0177 -0.1997  0.1511
 4882PW      WM19582   1.146  11.915   9.448 -0.0733  0.0104 -0.0937
 4883PW       W19583  11.532  10.789   0.390 -0.1089 -0.0779  0.1698
 4883PW      WP19584  11.623  10.890   0.425  0.1883 -0.3782  0.2969
 4883PW      WM19585  11.620  10.698   0.330  0.0510  0.2893 -0.1787
 4884PW       W19586   8.587   9.110   4.227 -0.1106 -0.3220 -0.4475
 4884PW      WP19587   8.612   9.176   4.348  0.1519 -0.2377 -0.5448
 4884PW      WM19588   8.566   9.194   4.117 -0.3563 -0.1379 -0.2663
 4885PW       W19589   5.331   2.135   9.327 -0.7567  0.0994  0.0608
 4885PW      WP19590   5.335   2.072   9.452  0.0098  0.3981  0.2127
 4885PW      WM19591   5.327   2.003   9.280 -0.1427  0.0797  0.0314
 4886PW       W19592  10.580   3.306   4.593  0.1220  0.2165 -0.1179
 4886PW      WP19593  10.580   3.443   4.562 -0.1152  0.2538  0.0384
 4886PW      WM19594  10.712   3.280   4.553  0.1220  0.1549 -0.0776
 4887PW       W19595  10.973   7.286  12.127 -0.1143  0.0356 -0.3395
 4887PW      WP19596  10.885   7.367  12.055 -0.2922 -0.3283 -0.5436
 4887PW      WM19597  10.952   7.194  12.231  0.6280  0.1956 -0.0105
 4888PW       W19598   5.182   8.500   2.424 -0.1065 -0.4391 -0.1300
 4888PW      WP19599   5.257   8.605   2.370 -0.0224 -0.3806  0.0958
 4888PW      WM19600   5.311   8.485   2.372  0.2563  0.3690  0.4449
 4889PW       W19601   2.284   5.855   2.007 -0.2425 -0.3127  0.0412
 4889PW      WP19602   2.160   5.918   1.994 -0.2326 -0.2571  0.2096
 4889PW      WM19603   2.392   5.926   1.952 -0.0040 -0.4818  0.2829
 4890PW       W19604  11.283  11.225   1.707 -0.1984  0.3252  0.2982
 4890PW      WP19605  11.357  11.175   1.599 -0.4095  0.1931  0.2139
 4890PW      WM19606  11.144  11.218   1.715 -0.1932 -0.0265  0.1498
 4891PW       W19607   2.792   3.454  10.855  0.5740 -0.0934  0.0711
 4891PW      WP19608   2.773   3.332  10.789  0.2617 -0.1263  0.2124
 4891PW      WM19609   2.742   3.354  10.939 -0.2095  0.2685  0.0771
 4892PW       W19610   4.263   0.602   0.227 -0.3739 -0.1525 -0.0338
 4892PW      WP19611   4.296   0.552   0.353 -0.3246 -0.1349 -0.0400
 4892PW      WM19612   4.289   0.548   0.100 -0.0391 -0.1510  0.0298
 4893PW       W19613   8.923   3.486  10.921 -0.0039 -0.1573  0.1985
 4893PW      WP19614   9.040   3.455  10.849 -0.2190 -0.4188 -0.0509
 4893PW      WM19615   8.945   3.624  10.934 -0.1017 -0.1089 -0.0899
 4894PW       W19616   0.402   8.656   1.059 -0.2275  0.1505 -0.0917
 4894PW      WP19617   0.487   8.721   0.969 -0.0113 -0.4122 -0.3188
 4894PW      WM19618   0.293   8.703   0.985 -0.1810 -0.1076 -0.3328
 4895PW       W19619   6.691   0.182   0.793  0.2122  0.7619 -0.1701
 4895PW      WP19620   6.562   0.224   0.825 -0.0016  0.1789 -0.2009
 4895PW      WM19621   6.711   0.073   0.706  0.3600  0.3225  0.3806
 4896PW       W19622  10.860   5.064   8.965  0.1451  0.2444  0.3054
 4896PW      WP19623  10.757   5.081   9.059  0.0477  0.1657  0.2148
 4896PW      WM19624  10.930   4.993   9.064  0.3308  0.1094  0.0814
 4897PW       W19625   2.769   7.099  12.706  0.0250  0.0930 -0.5397
 4897PW      WP19626   2.649   7.149  12.654 -0.3114  0.0443  0.1401
 4897PW      WM19627   2.771   7.018  12.820 -0.4388  0.5281 -0.1990
 4898PW       W19628  11.603   5.839   2.183  0.1567  0.3001  0.3425
 4898PW      WP19629  11.664   5.742   2.264 -0.5297  0.0730  0.6317
 4898PW      WM19630  11.583   5.760   2.069 -0.6749  0.8252  0.0772
 4899PW       W19631  11.062   4.827   1.051 -0.2692 -0.1001  0.2242
 4899PW      WP19632  11.041   4.863   0.917  0.2542  0.2533  0.2251
 4899PW      WM19633  11.079   4.965   1.065 -0.1930 -0.0657 -0.1516
 4900PW       W19634   9.300   7.541   1.945  0.2076  0.1266 -0.0042
 4900PW      WP19635   9.424   7.517   1.885  0.1947  0.2418 -0.0784
 4900PW      WM19636   9.251   7.616   1.838 -0.3647  0.2302  0.3113
 4901PW       W19637   4.294   4.683  12.604  0.0119 -0.0182  0.1994
 4901PW      WP19638   4.198   4.776  12.646  0.0576  0.0181  0.2244
 4901PW      WM19639   4.388   4.585  12.572 -0.1123 -0.0770 -0.0004
 4902PW       W19640   3.056  10.691   8.385 -0.1575 -0.1929  0.1223
 4902PW      WP19641   3.194  10.684   8.408 -0.1921 -0.2805  0.3108
 4902PW      WM19642   2.951  10.664   8.474 -0.1214 -0.4557  0.0878
 4903PW       W19643  11.488   2.829  13.221 -0.1306  0.2191  0.0496
 4903PW      WP19644  11.572   2.886  13.317  0.0829  0.1205 -0.0764
 4903PW      WM19645  11.562   2.869  13.109 -0.2516 -0.1366 -0.1684
 4904PW       W19646  11.236   3.846   2.573 -0.0506 -0.2876 -0.1766
 4904PW      WP19647  11.325   3.897   2.478 -0.0942 -0.1181 -0.1287
 4904PW      WM19648  11.216   3.874   2.709  0.1104 -0.3960 -0.1290
 4905PW       W19649   3.218   2.602   0.264 -0.0257 -0.1041  0.1045
 4905PW      WP19650   3.266   2.471   0.254 -0.1015 -0.1188 -0.0793
 4905PW      WM19651   3.260   2.702   0.354  0.5213  0.2031 -0.4525
 4906PW       W19652   2.251  10.982   9.812  0.1829  0.1854  0.3307
 4906PW      WP19653   2.364  11.061   9.835  0.6657 -0.2352 -0.3998
 4906PW      WM19654   2.366  10.902   9.806  0.0456  0.0015 -0.0542
 4907PW       W19655   0.105   9.013   2.301  0.1233 -0.0849 -0.0306
 4907PW      WP19656   0.067   8.949   2.183 -0.2649 -0.1728  0.1327
 4907PW      WM19657   0.157   8.935   2.405 -0.3752 -0.4163 -0.0098
 4908PW       W19658  10.658  10.712   2.892  0.4975  0.0415  0.1740
 4908PW      WP19659  10.666  10.712   2.753 -0.4276  0.4837  0.0836
 4908PW      WM19660  10.631  10.605   2.979 -0.0515 -0.0489 -0.0862
 4909PW       W19661   5.201  10.132   1.744  0.1555 -0.0759  0.0698
 4909PW      WP19662   5.280  10.187   1.643  0.3826 -0.0036  0.2806
 4909PW      WM19663   5.173  10.210   1.857 -0.0601 -0.2987  0.1771
 4910PW       W19664  11.250   0.963  12.562 -0.3301  0.4834 -0.0591
 4910PW      WP19665  11.326   1.042  12.475  0.0385  0.2545  0.0426
 4910PW      WM19666  11.143   0.998  12.645  0.1687  0.3393  0.6937
 4911PW       W19667   6.779   4.332   3.464  0.1036  0.4543 -0.4734
 4911PW      WP19668   6.902   4.399   3.467  0.1528  0.4085  0.5630
 4911PW      WM19669   6.767   4.433   3.560 -0.3324  0.1376 -0.1723
 4912PW       W19670   5.182   5.959  10.196 -0.1558  0.3686  0.1916
 4912PW      WP19671   5.045   5.969  10.224 -0.3135  0.0779 -0.3976
 4912PW      WM19672   5.179   5.878  10.310 -0.0803 -0.4235 -0.3337
 4913PW       W19673   3.515  11.698  13.105 -0.0163 -0.1688 -0.2869
 4913PW      WP19674   3.384  11.677  13.150  0.0373 -0.2721 -0.1775
 4913PW      WM19675   3.610  11.597  13.125  0.5047  0.4001  0.3693
 4914PW       W19676   6.999   2.815   8.694 -0.2737  0.1854  0.2319
 4914PW      WP19677   7.051   2.691   8.655  0.1972  0.3241  0.3817
 4914PW      WM19678   6.920   2.703   8.667 -0.3162  0.3316 -0.3014
 4915PW       W19679   7.654   4.878   2.496  0.0496 -0.0447 -0.0221
 4915PW      WP19680   7.693   4.809   2.611  0.0596 -0.4194 -0.2405
 4915PW      WM19681   7.659   4.924   2.628 -0.6173  0.0721 -0.0173
 4916PW       W19682  10.701   9.718   3.745  0.0927 -0.5795  0.0579
 4916PW      WP19683  10.655   9.596   3.696 -0.3896 -0.4137  0.0684
 4916PW      WM19684  10.634   9.819   3.815 -0.1149 -0.2395 -0.5846
 4917PW       W19685  10.859  11.398   1.756  0.3163  0.4622  0.4882
 4917PW      WP19686  10.956  11.301   1.728 -0.0725  0.2040 -0.0631
 4917PW      WM19687  10.818  11.531   1.751  0.4467  0.5044  0.5328
 4918PW       W19688   9.537   8.892   4.116  0.2177  0.2152 -0.1098
 4918PW      WP19689   9.600   8.964   4.014  0.0349 -0.0186 -0.3976
 4918PW      WM19690   9.672   8.861   4.137  0.1362 -0.0599  0.0330
 4919PW       W19691   0.208   0.375   2.865  0.0605 -0.2325 -0.0796
 4919PW      WP19692   0.092   0.439   2.911 -0.1093 -0.4639 -0.1783
 4919PW      WM19693   0.185   0.276   2.768 -0.1780 -0.0463 -0.2204
 4920PW       W19694   3.101   4.814   3.406 -0.2733  0.0648  0.3526
 4920PW      WP19695   3.115   4.700   3.326  0.4335  0.2630  0.1540
 4920PW      WM19696   3.219   4.779   3.474 -0.1786  0.1928  0.2573
 4921PW       W19697   0.641   4.344  10.438 -0.2045 -0.2827  0.1767
 4921PW      WP19698   0.614   4.208  10.462 -0.4313 -0.3497 -0.3751
 4921PW      WM19699   0.640   4.327  10.299  0.4744  0.1559  0.0948
 4922PW       W19700   0.369   6.203   9.730 -0.0250 -0.0456 -0.1263
 4922PW      WP19701   0.291   6.109   9.661  0.1141 -0.0899 -0.2230
 4922PW      WM19702   0.508   6.220   9.732 -0.0411  0.1315  0.3399
 4923PW       W19703   4.028   3.299   3.367  0.3441  0.0306  0.1621
 4923PW      WP19704   4.058   3.435   3.352  0.2590 -0.0043 -0.4032
 4923PW      WM19705   3.934   3.245   3.456  0.1826 -0.1393 -0.1051
 4924PW       W19706  10.304  10.942   0.922 -0.2227 -0.5319 -0.1540
 4924PW      WP19707  10.283  10.823   0.992 -0.2136 -0.3534  0.1616
 4924PW      WM19708  10.228  10.890   0.817 -0.3258  0.1346 -0.4388
 4925PW       W19709   1.487   1.453   3.493 -0.0988  0.0494 -0.0822
 4925PW      WP19710   1.439   1.550   3.405  0.0678  0.0358 -0.1908
 4925PW      WM19711   1.566   1.427   3.380 -0.1075 -0.2058 -0.0337
 4926PW       W19712   7.358  10.205   9.012  0.1784  0.0419  0.4970
 4926PW      WP19713   7.423  10.323   8.974 -0.4043  0.1491 -0.2798
 4926PW      WM19714   7.244  10.166   9.083 -0.1130 -0.1394 -0.0448
 4927PW       W19715  12.054  10.183   2.132  0.0361  0.1345 -0.5644
 4927PW      WP19716  12.023  10.064   2.065  0.2474 -0.1266 -0.2161
 4927PW      WM19717  12.163  10.153   2.049  0.1374 -0.1907 -0.3238
 4928PW       W19718   9.858   7.359   4.746 -0.2091 -0.1611 -0.3137
 4928PW      WP19719   9.860   7.486   4.687 -0.1460 -0.0412 -0.0590
 4928PW      WM19720   9.956   7.282   4.810  0.0443  0.4389  0.0617
 4929PW       W19721   9.197   9.720   8.266  0.6074  0.3429 -0.0969
 4929PW      WP19722   9.108   9.737   8.159  0.2345  0.0641  0.1559
 4929PW      WM19723   9.255   9.847   8.265  0.2380  0.5206  0.0167
 4930PW       W19724   0.182   0.761  11.523  0.1157  0.0528 -0.1296
 4930PW      WP19725   0.093   0.665  11.473  0.0372  0.1440 -0.1672
 4930PW      WM19726   0.281   0.707  11.439 -0.0232 -0.0915 -0.2034
 4931PW       W19727   0.689   7.746   9.105 -0.1473 -0.0744  0.0548
 4931PW      WP19728   0.821   7.722   9.064 -0.2435  0.0253 -0.3418
 4931PW      WM19729   0.658   7.793   9.233 -0.5486  0.0968 -0.0985
 4932PW       W19730   4.119   7.512   3.164 -0.0624  0.7898 -0.0526
 4932PW      WP19731   4.122   7.533   3.025 -0.8201 -0.2739 -0.3019
 4932PW      WM19732   3.991   7.569   3.156 -0.2177  0.4794  0.0906
 4933PW       W19733   2.768  11.705  10.942  0.3540 -0.1910  0.2460
 4933PW      WP19734   2.708  11.830  10.962 -0.4721 -0.5575  0.2616
 4933PW      WM19735   2.692  11.727  11.057  0.1922 -0.3027  0.1634
 4934PW       W19736   6.248   1.282   9.122  0.3631  0.3191  0.1888
 4934PW      WP19737   6.335   1.285   9.231  0.2834 -0.1634  0.2737
 4934PW      WM19738   6.222   1.173   9.039 -0.2144  0.3975  0.2461
 4935PW       W19739   4.369   9.734  10.604 -0.2158 -0.3117 -0.2648
 4935PW      WP19740   4.442   9.631  10.544  0.3610 -0.2252  0.2375
 4935PW      WM19741   4.268   9.646  10.564 -0.5635 -0.1865  0.2846
 4936PW       W19742   5.408  11.304   3.161  0.0926  0.3810 -0.1757
 4936PW      WP19743   5.373  11.258   3.034  0.2503 -0.3318  0.0144
 4936PW      WM19744   5.417  11.288   3.300 -0.0192  0.4213 -0.1638
 4937PW       W19745   3.436  10.111   4.633  0.4100  0.2933 -0.3222
 4937PW      WP19746   3.459  10.157   4.763 -0.0430 -0.0159 -0.1187
 4937PW      WM19747   3.325  10.188   4.596  0.0067 -0.2947 -0.3943
 4938PW       W19748   2.928   7.285   1.469  0.5327  0.3577 -0.0838
 4938PW      WP19749   2.907   7.274   1.607  0.3331 -0.3609 -0.1483
 4938PW      WM19750   2.835   7.325   1.372  0.1422  0.4252  0.2992
 4939PW       W19751  10.713   3.496  13.326  0.0793 -0.2349  0.3355
 4939PW      WP19752  10.831   3.434  13.367  0.2386 -0.1655 -0.0022
 4939PW      WM19753  10.695   3.361  13.293  0.0296 -0.1992  0.2150
 4940PW       W19754   9.251   9.390   0.944 -0.2944 -0.0303  0.3627
 4940PW      WP19755   9.117   9.373   0.907 -0.3570  0.6468  0.2127
 4940PW      WM19756   9.311   9.305   1.037  0.1064  0.4597  0.5748
 4941PW       W19757  11.307   4.386  10.330 -0.1732 -0.4062  0.5121
 4941PW      WP19758  11.442   4.411  10.358 -0.0737 -0.1673 -0.0961
 4941PW      WM19759  11.207   4.472  10.283  0.6259  0.3897  0.1051
 4942PW       W19760   8.451   9.496   3.636  0.1535  0.4549 -0.0307
 4942PW      WP19761   8.564   9.439   3.696  0.1124  0.1387 -0.2425
 4942PW      WM19762   8.527   9.614   3.635  0.4846  0.2562  0.2399
 4943PW       W19763   1.451   6.096  11.734 -0.3784 -0.3196 -0.1952
 4943PW      WP19764   1.522   6.164  11.633 -0.3615 -0.1098 -0.0453
 4943PW      WM19765   1.444   5.985  11.648  0.3923 -0.4510 -0.1301
 4944PW       W19766   0.229   6.148   5.135  0.2909 -0.1504  0.2828
 4944PW      WP19767   0.121   6.076   5.187 -0.5064  0.1307 -0.8017
 4944PW      WM19768   0.264   6.103   5.007  0.1293 -0.4517  0.3411
 4945PW       W19769   8.535   2.521   2.416 -0.2820 -0.0080 -0.0844
 4945PW      WP19770   8.457   2.466   2.518 -0.3458 -0.1113 -0.1875
 4945PW      WM19771   8.560   2.634   2.337 -0.3785 -0.1629 -0.3455
 4946PW       W19772   2.806   9.626   4.161  0.0266  0.1592 -0.0395
 4946PW      WP19773   2.696   9.711   4.175 -0.1083 -0.0285  0.0618
 4946PW      WM19774   2.922   9.548   4.177  0.0522  0.1472 -0.2576
 4947PW       W19775  11.099   3.538  10.273  0.1317  0.3284 -0.1745
 4947PW      WP19776  11.047   3.444  10.363  0.3162  0.1318 -0.2685
 4947PW      WM19777  11.214   3.532  10.194  0.2687  0.4325  0.0146
 4948PW       W19778   5.028   6.708   3.016  0.1974  0.3265 -0.5862
 4948PW      WP19779   5.089   6.588   3.056 -0.2321  0.2088 -0.2483
 4948PW      WM19780   4.980   6.716   2.884  0.1223  0.1159 -0.5737
 4949PW       W19781   2.004   2.689   9.209 -0.4306  0.2005  0.1545
 4949PW      WP19782   1.926   2.791   9.154 -0.6861 -0.0604  0.0202
 4949PW      WM19783   2.099   2.725   9.112 -0.5620 -0.0478 -0.0736
 4950PW       W19784  10.742  11.149   8.766  0.3595  0.4075  0.3735
 4950PW      WP19785  10.736  11.282   8.809  0.1453  0.4724  0.1570
 4950PW      WM19786  10.816  11.030   8.767  0.5509  0.4879 -0.4677
 4951PW       W19787   6.312  11.645   9.438 -0.5402  0.2696 -0.3553
 4951PW      WP19788   6.370  11.771   9.460  0.5839 -0.2680  0.1359
 4951PW      WM19789   6.329  11.590   9.311 -0.0956  0.0749 -0.2194
 4952PW       W19790  11.763   2.852  10.792  0.4130 -0.0841  0.2221
 4952PW      WP19791  11.681   2.926  10.878  0.0189 -0.0757 -0.1392
 4952PW      WM19792  11.700   2.862  10.667  0.1453  0.5183  0.3888
 4953PW       W19793  11.884   5.480   2.700 -0.1599  0.0204  0.5568
 4953PW      WP19794  11.906   5.451   2.835 -0.0388 -0.4819  0.4365
 4953PW      WM19795  11.766   5.460   2.628 -0.0968  0.2685  0.3766
 4954PW       W19796   6.361  10.145   4.282 -0.5812  0.3550 -0.0731
 4954PW      WP19797   6.376  10.035   4.196  0.4454 -0.0133  0.5009
 4954PW      WM19798   6.351  10.183   4.416  0.0987 -0.0122  0.1058
 4955PW       W19799   7.975   8.831   0.665 -0.4744 -0.1698 -0.0910
 4955PW      WP19800   8.099   8.880   0.708 -0.4022 -0.3635 -0.0699
 4955PW      WM19801   7.993   8.693   0.651 -0.3255 -0.1741  0.1181
 4956PW       W19802   4.168   6.408   3.983 -0.3493  0.0204 -0.4000
 4956PW      WP19803   4.141   6.381   4.117  0.1724 -0.3191 -0.3478
 4956PW      WM19804   4.195   6.516   3.897  0.3706  0.1638 -0.0331
 4957PW       W19805   9.414  10.169  10.330 -0.3333 -0.3083  0.0478
 4957PW      WP19806   9.313  10.167  10.427  0.0465 -0.2173  0.4603
 4957PW      WM19807   9.466  10.196  10.202 -0.5333 -0.1136  0.0035
 4958PW       W19808  11.411   9.483   1.583  0.3056  0.3589 -0.0420
 4958PW      WP19809  11.290   9.439   1.529  0.1652  0.2556  0.3438
 4958PW      WM19810  11.309   9.531   1.666 -0.1712 -0.1176 -0.3219
 4959PW       W19811   2.964   6.283   2.504 -0.4565 -0.1072 -0.0344
 4959PW      WP19812   2.994   6.189   2.604 -0.0896 -0.2329 -0.2517
 4959PW      WM19813   2.973   6.382   2.602  0.4640 -0.0777 -0.1022
 4960PW       W19814   3.171   8.716   1.765 -0.2778 -0.1740  0.0844
 4960PW      WP19815   3.245   8.602   1.732  0.0491  0.0142  0.1491
 4960PW      WM19816   3.269   8.810   1.799 -0.4218 -0.0635  0.2015
 4961PW       W19817   3.170   7.650   9.221 -0.4061  0.4648  0.1897
 4961PW      WP19818   3.208   7.747   9.315  0.0022  0.3524  0.1505
 4961PW      WM19819   3.279   7.668   9.307 -0.0718  0.3608 -0.1994
 4962PW       W19820   8.702   7.798   9.778  0.2238 -0.2230  0.1316
 4962PW      WP19821   8.735   7.871   9.893  0.0680 -0.2136  0.1706
 4962PW      WM19822   8.614   7.738   9.687  0.4240 -0.2349 -0.0580
 4963PW       W19823  10.996   2.341  12.697  0.3683  0.0223  0.5878
 4963PW      WP19824  10.874   2.402  12.731  0.1377 -0.1543  0.1243
 4963PW      WM19825  10.928   2.218  12.694  0.2929  0.0670  0.2961
 4964PW       W19826   9.638   6.268   2.996  0.2564  0.2910 -0.1636
 4964PW      WP19827   9.657   6.355   3.104 -0.4391  0.1223  0.1201
 4964PW      WM19828   9.759   6.211   2.954  0.0478 -0.1342 -0.2138
 4965PW       W19829   4.266   3.827   1.233  0.1762 -0.1820  0.2443
 4965PW      WP19830   4.159   3.772   1.160  0.1671 -0.5156  0.4982
 4965PW      WM19831   4.388   3.893   1.216 -0.1545  0.4950  0.3427
 4966PW       W19832   3.398   0.072   9.254  0.2816  0.0843  0.6204
 4966PW      WP19833   3.368   0.198   9.201  0.4915  0.0656  0.4532
 4966PW      WM19834   3.487   0.177   9.277  0.2580  0.3167 -0.1753
 4967PW       W19835   4.598   0.129  12.221  0.4990  0.4641  0.0430
 4967PW      WP19836   4.490   0.134  12.310 -0.0258  0.0862 -0.5276
 4967PW      WM19837   4.635   0.000  12.263 -0.4276  0.0651 -0.2327
 4968PW       W19838   3.556   9.754  11.807  0.0795 -0.0550 -0.3332
 4968PW      WP19839   3.691   9.760  11.841 -0.1445  0.2329  0.6939
 4968PW      WM19840   3.462   9.858  11.797 -0.0482 -0.1297  0.0145
 4969PW       W19841   6.554   2.910   5.523  0.6231 -0.1080 -0.0594
 4969PW      WP19842   6.621   3.033   5.516  0.4230  0.0055 -0.0370
 4969PW      WM19843   6.468   2.832   5.444  0.3516  0.0686  0.0568
 4970PW       W19844   3.665  10.366   4.133 -0.4005 -0.0050  0.1851
 4970PW      WP19845   3.571  10.325   4.228 -0.2289  0.0432  0.3801
 4970PW      WM19846   3.650  10.340   4.270  0.1423 -0.8903  0.1149
 4971PW       W19847   8.401  10.625   0.915  0.2489 -0.1216  0.0093
 4971PW      WP19848   8.540  10.643   0.917  0.2074  0.2212  0.1511
 4971PW      WM19849   8.334  10.622   0.792  0.1142 -0.3273  0.0841
 4972PW       W19850   2.807  11.328   9.073  0.0333  0.2110  0.0093
 4972PW      WP19851   2.791  11.248   8.959 -0.1476  0.4754 -0.1572
 4972PW      WM19852   2.715  11.433   9.061  0.0534  0.2096 -0.1767
 4973PW       W19853   0.476   5.170   0.135  0.3317  0.3492 -0.3592
 4973PW      WP19854   0.563   5.062   0.119 -0.4076 -0.3264 -0.1492
 4973PW      WM19855   0.467   5.083   0.244 -0.0668  0.4396 -0.3114
 4974PW       W19856   7.906   3.477  11.590  0.0938  0.0556 -0.1787
 4974PW      WP19857   7.795   3.393  11.610  0.1401  0.0177 -0.0761
 4974PW      WM19858   7.778   3.434  11.551  0.0674  0.1831 -0.2331
 4975PW       W19859  11.592   7.557  11.120 -0.5526 -0.1891  0.0947
 4975PW      WP19860  11.543   7.431  11.156 -0.2759 -0.2163  0.3963
 4975PW      WM19861  11.597   7.694  11.093  0.0244 -0.2059  0.0565
 4976PW       W19862   0.782   0.656   5.525 -0.2036  0.1517 -0.1875
 4976PW      WP19863   0.683   0.752   5.550 -0.4657 -0.1977  0.1854
 4976PW      WM19864   0.794   0.618   5.390  0.8785 -0.0362 -0.0790
 4977PW       W19865   7.315   9.716   8.624  0.0145 -0.0757  0.3025
 4977PW      WP19866   7.385   9.818   8.558 -0.7035  0.1447 -0.1713
 4977PW      WM19867   7.348   9.640   8.737  0.3963 -0.1522  0.1479
 4978PW       W19868   8.633   2.671   9.567  0.3686 -0.1142 -0.1603
 4978PW      WP19869   8.770   2.695   9.581  0.4917 -0.7772 -0.0520
 4978PW      WM19870   8.558   2.662   9.449  0.0044 -0.1035  0.0628
 4979PW       W19871   9.266   9.756  12.299 -0.0648 -0.1134  0.2813
 4979PW      WP19872   9.335   9.853  12.374 -0.4508  0.0808  0.4037
 4979PW      WM19873   9.237   9.679  12.186  0.4116  0.2768 -0.1292
 4980PW       W19874   5.379   6.578   0.406  0.0567  0.4343  0.2907
 4980PW      WP19875   5.404   6.625   0.536 -0.2211  0.5089  0.3197
 4980PW      WM19876   5.288   6.566   0.300  0.7029  0.2260 -0.2776
 4981PW       W19877  11.014  11.123  10.341 -0.1001  0.1641  0.1381
 4981PW      WP19878  10.883  11.156  10.302 -0.2474 -0.2963  0.2106
 4981PW      WM19879  11.087  11.026  10.411 -0.0887  0.2749  0.2811
 4982PW       W19880   1.152   4.479   4.304  0.3181 -0.1783  0.0284
 4982PW      WP19881   1.119   4.344   4.285 -0.0212 -0.0960 -0.0066
 4982PW      WM19882   1.051   4.555   4.245 -0.0463 -0.4314  0.3031
 4983PW       W19883  11.324   5.608   4.823  0.0688 -0.1841  0.0020
 4983PW      WP19884  11.191   5.630   4.860 -0.0905 -0.2368 -0.5075
 4983PW      WM19885  11.417   5.642   4.725 -0.0370  0.1429  0.0103
 4984PW       W19886   6.735   0.423  13.095  0.2617  0.0769  0.1760
 4984PW      WP19887   6.648   0.364  13.003  0.0232  0.0717  0.4013
 4984PW      WM19888   6.650   0.407  13.205 -0.0641  0.1350 -0.0629
 4985PW       W19889  10.867   5.270   0.973 -0.2159 -0.4382  0.1199
 4985PW      WP19890  10.995   5.266   0.916 -0.2691 -0.0206 -0.0528
 4985PW      WM19891  10.802   5.252   0.850 -0.0475  0.6295 -0.1813
 4986PW       W19892   1.699   3.698   0.455 -0.4099  0.0766 -0.0151
 4986PW      WP19893   1.740   3.725   0.324  0.4383 -0.2729  0.1484
 4986PW      WM19894   1.598   3.603   0.471  0.2719 -0.7004  0.0244
 4987PW       W19895   1.872   4.052  12.131  0.0221 -0.0028 -0.0075
 4987PW      WP19896   1.859   4.049  11.992  0.2562 -0.1749 -0.0278
 4987PW      WM19897   2.004   4.016  12.158  0.2509  0.3484 -0.5714
 4988PW       W19898   9.746   4.735   5.313 -0.0887  0.1694 -0.1938
 4988PW      WP19899   9.645   4.697   5.224 -0.2770  0.5410 -0.1483
 4988PW      WM19900   9.762   4.849   5.234  0.2035  0.2768  0.0124
 4989PW       W19901   7.476   7.018   2.466 -0.0998  0.3614  0.0545
 4989PW      WP19902   7.509   6.884   2.489  0.1137  0.4137  0.0648
 4989PW      WM19903   7.596   6.959   2.508 -0.2922  0.2724  0.5070
 4990PW       W19904  11.175   5.014   3.176 -0.1110  0.1718  0.2867
 4990PW      WP19905  11.173   4.984   3.312 -0.0008  0.1494  0.2836
 4990PW      WM19906  11.197   5.136   3.110  0.6860 -0.0255  0.1340
 4991PW       W19907   2.944   5.788   2.400 -0.1124 -0.2567 -0.0236
 4991PW      WP19908   3.028   5.676   2.396  0.2042 -0.0213 -0.2468
 4991PW      WM19909   2.811   5.829   2.406 -0.0955 -0.1565 -0.2778
 4992PW       W19910   2.070   5.996   1.557 -0.4751 -0.0940  0.2957
 4992PW      WP19911   2.075   6.108   1.641 -0.2222  0.0681  0.0721
 4992PW      WM19912   2.148   5.922   1.468  0.4209  0.6901  0.3593
 4993PW       W19913   7.965   2.134   8.369  0.0056  0.0698  0.2778
 4993PW      WP19914   8.056   2.045   8.427 -0.1127 -0.5119 -0.3696
 4993PW      WM19915   7.936   2.123   8.506 -0.0546 -0.7042  0.2233
 4994PW       W19916   5.592   0.898  12.598 -0.5281 -0.3265 -0.2552
 4994PW      WP19917   5.595   0.811  12.707  0.2834  0.2067  0.2010
 4994PW      WM19918   5.666   0.947  12.489  0.1601  0.3834  0.4610
 4995PW       W19919   3.630   7.182   0.376  0.0238 -0.1836 -0.2674
 4995PW      WP19920   3.703   7.293   0.332 -0.0233 -0.1242 -0.1959
 4995PW      WM19921   3.710   7.173   0.261  0.6478  0.1472  0.1091
 4996PW       W19922   0.937  11.108  10.966 -0.0071 -0.2622 -0.1438
 4996PW      WP19923   0.939  11.097  11.105 -0.1780  0.0280 -0.1150
 4996PW      WM19924   0.816  11.169  10.931 -0.1004 -0.4381 -0.1340
 4997PW       W19925  11.758   7.782  11.540 -0.0100  0.1452 -0.0283
 4997PW      WP19926  11.721   7.838  11.417  0.3050 -0.0608 -0.2251
 4997PW      WM19927  11.730   7.911  11.586 -0.0093  0.1214  0.0393
 4998PW       W19928   9.166   1.787   9.941  0.2388  0.0129 -0.2051
 4998PW      WP19929   9.036   1.830   9.913  0.3467  0.5815  0.0978
 4998PW      WM19930   9.120   1.659   9.907 -0.2014  0.2239 -0.4410
 4999PW       W19931   1.249   0.822   1.392  0.1350  0.0520  0.0656
 4999PW      WP19932   1.351   0.903   1.444  0.3752 -0.0851 -0.1797
 4999PW      WM19933   1.222   0.950   1.441 -0.1735  0.0131  0.0071
 5000PW       W19934   6.717   5.096  12.595  0.2260 -0.0027 -0.0105
 5000PW      WP19935   6.711   5.006  12.702 -0.5415 -0.1582 -0.1558
 5000PW      WM19936   6.662   5.197  12.674  0.2479 -0.0211  0.0294
 5001PW       W19937   0.056   4.430   5.041  0.3903  0.1752  0.2101
 5001PW      WP19938  -0.078   4.452   5.074  0.2792 -0.1623  0.0089
 5001PW      WM19939   0.146   4.455   4.936  0.2304 -0.0994 -0.0006
 5002PW       W19940  12.024   3.079   1.671  0.5515  0.0596 -0.1645
 5002PW      WP19941  12.142   3.118   1.736  0.2679  0.0865  0.3651
 5002PW      WM19942  12.014   3.091   1.810  0.7434 -0.3107 -0.1158
 5003PW       W19943  10.908   8.890   2.129 -0.0633  0.3598 -0.1667
 5003PW      WP19944  10.936   8.754   2.113 -0.2312  0.3197 -0.1307
 5003PW      WM19945  10.790   8.905   2.204 -0.2529 -0.1072 -0.3502
 5004PW       W19946   4.160   0.274  10.135  0.1742  0.0350 -0.0604
 5004PW      WP19947   4.187   0.372  10.231  0.1921 -0.3619  0.3617
 5004PW      WM19948   4.056   0.349  10.190  0.0419 -0.4221  0.3554
 5005PW       W19949   9.256   3.221   2.211 -0.1659 -0.0203 -0.0327
 5005PW      WP19950   9.364   3.306   2.184  0.0919 -0.2572  0.2201
 5005PW      WM19951   9.284   3.091   2.256 -0.3307 -0.0765 -0.0879
 5006PW       W19952   7.818   1.085  12.316 -0.0555 -0.2191 -0.0352
 5006PW      WP19953   7.897   0.997  12.391 -0.3728 -0.4833 -0.0007
 5006PW      WM19954   7.802   1.172  12.424 -0.1954  0.0402 -0.2563
 5007PW       W19955   6.178   0.063  12.311 -0.0833 -0.3376  0.1903
 5007PW      WP19956   6.156  -0.075  12.303 -0.5553 -0.2554 -0.1078
 5007PW      WM19957   6.161   0.175  12.393 -0.3784  0.0208 -0.3323
 5008PW       W19958  10.630   3.234   2.655  0.0874 -0.2476  0.1402
 5008PW      WP19959  10.726   3.165   2.730 -0.0087 -0.7759 -0.1879
 5008PW      WM19960  10.631   3.336   2.751 -0.0017  0.6458 -0.7266
 5009PW       W19961   0.222  10.215  12.403 -0.5597  0.3328 -0.2020
 5009PW      WP19962   0.093  10.176  12.441 -0.3066 -0.1099  0.2589
 5009PW      WM19963   0.282  10.223  12.277 -0.4264  0.2264 -0.1461
 5010PW       W19964   7.762   1.523  13.309  0.0057  0.1942 -0.1180
 5010PW      WP19965   7.634   1.481  13.348  0.1108 -0.4074 -0.3653
 5010PW      WM19966   7.861   1.596  13.243  0.0774  0.2316  0.0290
 5011PW       W19967   9.037   8.222  11.377 -0.4019  0.0121  0.1857
 5011PW      WP19968   8.972   8.345  11.373 -0.3293  0.0434 -0.3555
 5011PW      WM19969   8.980   8.098  11.409  0.6021 -0.6353 -0.2780
 5012PW       W19970   8.043   3.049   4.054 -0.3230 -0.1221 -0.5819
 5012PW      WP19971   7.963   2.992   4.153  0.0894 -0.4534 -0.4201
 5012PW      WM19972   7.937   3.131   4.093  0.0124  0.0665 -0.0188
 5013PW       W19973  10.900   0.001   9.077 -0.1725  0.1917 -0.1450
 5013PW      WP19974  10.924   0.122   9.011  0.0304  0.2041 -0.0526
 5013PW      WM19975  10.890  -0.088   8.969 -0.0933  0.1421 -0.1113
 5014PW       W19976   2.984   6.951  10.246  0.3171  0.0832  0.1855
 5014PW      WP19977   2.956   6.981  10.112  0.4559  0.3242  0.2070
 5014PW      WM19978   2.897   6.939  10.355 -0.1297  0.1408 -0.1507
 5015PW       W19979   3.333   1.566  12.127 -0.4193  0.1610  0.0715
 5015PW      WP19980   3.457   1.531  12.072 -0.4867 -0.0889  0.0703
 5015PW      WM19981   3.244   1.474  12.069 -0.0929 -0.2302  0.1643
 5016PW       W19982   9.028   2.527   4.750  0.3093  0.0498 -0.1517
 5016PW      WP19983   9.005   2.472   4.877  0.1444  0.4447 -0.0019
 5016PW      WM19984   8.975   2.488   4.627 -0.3387  0.4772 -0.0330
 5017PW       W19985   4.846   6.316   4.508 -0.2324 -0.1345  0.2548
 5017PW      WP19986   4.830   6.382   4.630  0.1049 -0.0506  0.2584
 5017PW      WM19987   4.981   6.310   4.546  0.1091 -0.1905 -0.8104
 5018PW       W19988   2.708   3.214  12.084 -0.4775 -0.0862 -0.1370
 5018PW      WP19989   2.743   3.161  12.209  0.2815  0.0537 -0.2623
 5018PW      WM19990   2.831   3.228  12.017 -0.2102 -0.3425  0.2777
 5019PW       W19991   9.717   6.813   4.664 -0.1140 -0.1269  0.0750
 5019PW      WP19992   9.717   6.908   4.766  0.3373 -0.2300  0.1818
 5019PW      WM19993   9.681   6.731   4.555 -0.2356 -0.5064  0.3881
 5020PW       W19994  11.797   4.974   3.940  0.4939 -0.0973  0.0308
 5020PW      WP19995  11.796   4.929   4.073 -0.0832 -0.0779  0.0482
 5020PW      WM19996  11.731   5.084   3.998  0.6948 -0.1004  0.2708
 5021PW       W19997   5.477   0.759   9.073 -0.2162  0.0822 -0.2726
 5021PW      WP19998   5.580   0.814   8.995 -0.2665  0.4386 -0.0969
 5021PW      WM19999   5.348   0.814   9.081 -0.2771 -0.0551 -0.2924
 5022PW       W20000   7.764   2.506   9.339 -0.1157  0.4662 -0.4789
 5022PW      WP20001   7.881   2.539   9.409 -0.1534 -0.2512 -0.0397
 5022PW      WM20002   7.659   2.594   9.370 -0.1271  0.1056  0.7373
 5023PW       W20003  10.479  10.450   2.248  0.4596  0.0280 -0.6141
 5023PW      WP20004  10.369  10.425   2.165  0.0639  0.6365 -0.3110
 5023PW      WM20005  10.586  10.534   2.281  0.3775 -0.0760 -0.0219
 5024PW       W20006   7.179   1.945   1.073  0.0576 -0.1401 -0.7013
 5024PW      WP20007   7.063   1.907   1.140  0.0675 -0.0838 -0.6518
 5024PW      WM20008   7.317   1.917   1.071  0.1128  0.0274 -0.1517
 5025PW       W20009  10.599  11.276  10.219  0.0670 -0.0879 -0.0006
 5025PW      WP20010  10.650  11.403  10.191  0.0792 -0.0254  0.2915
 5025PW      WM20011  10.700  11.216  10.296  0.0555  0.1543  0.2060
 5026PW       W20012   5.992   4.471   4.579  0.2211  0.2393  0.2975
 5026PW      WP20013   5.879   4.415   4.638 -0.0968  0.6041  0.0539
 5026PW      WM20014   5.921   4.586   4.614 -0.1693  0.0522  0.1487
 5027PW       W20015   7.171   6.321   1.040 -0.1738 -0.3164  0.2008
 5027PW      WP20016   7.062   6.262   0.976 -0.1334 -0.2538  0.0738
 5027PW      WM20017   7.242   6.211   1.090  0.5689 -0.0226 -0.1358
 5028PW       W20018   9.935   7.812   8.637 -0.2532 -0.2098  0.0885
 5028PW      WP20019  10.074   7.815   8.623 -0.2491 -0.6018  0.0006
 5028PW      WM20020   9.828   7.899   8.661  0.0484  0.1338  0.2395
 5029PW       W20021   5.940   3.613   4.341  0.0859 -0.0828  0.0258
 5029PW      WP20022   5.939   3.645   4.205 -0.4636 -0.3510 -0.0470
 5029PW      WM20023   5.851   3.696   4.409  0.0141 -0.0368 -0.1236
 5030PW       W20024   7.175   9.817  10.816 -0.0083  0.1911  0.0100
 5030PW      WP20025   7.182   9.938  10.886 -0.5895 -0.0829  0.5866
 5030PW      WM20026   7.301   9.864  10.857 -0.1116  0.3938  0.1053
 5031PW       W20027   9.933   5.854   2.990 -0.4197  0.1020 -0.1119
 5031PW      WP20028   9.937   5.993   2.972 -0.6049  0.1233 -0.0079
 5031PW      WM20029   9.921   5.918   2.866  0.0527  0.1297 -0.1527
 5032PW       W20030  11.614   1.301  11.078 -0.4788  0.2782 -0.0807
 5032PW      WP20031  11.610   1.211  11.185  0.3319  0.1575 -0.1217
 5032PW      WM20032  11.597   1.208  10.975  0.5657  0.0490 -0.0969
 5033PW       W20033   7.552   2.409   0.143 -0.3458 -0.1141  0.4862
 5033PW      WP20034   7.616   2.461   0.256  0.4213 -0.2115  0.1364
 5033PW      WM20035   7.446   2.417   0.052  0.1597 -0.0303 -0.1407
 5034PW       W20036   9.591  11.239   3.710  0.1087 -0.4775 -0.0635
 5034PW      WP20037   9.609  11.147   3.606 -0.2070 -0.1516 -0.4286
 5034PW      WM20038   9.677  11.305   3.799  0.3126 -0.1319 -0.4964
 5035PW       W20039   3.634   3.614  11.957 -0.2453  0.0346 -0.1769
 5035PW      WP20040   3.653   3.593  11.820 -0.2621  0.0711 -0.1846
 5035PW      WM20041   3.615   3.494  12.026 -0.0416  0.1842  0.1531
 5036PW       W20042   2.737   6.721   2.524  0.1970 -0.1654  0.2369
 5036PW      WP20043   2.700   6.791   2.639 -0.4293  0.0712 -0.0832
 5036PW      WM20044   2.619   6.648   2.503 -0.0714  0.3657 -0.2247
 5037PW       W20045   4.720   4.870   0.352  0.5080  0.3808  0.2633
 5037PW      WP20046   4.697   4.929   0.477  0.2152  0.1439  0.3278
 5037PW      WM20047   4.766   4.983   0.284  0.6726  0.0789 -0.1492
 5038PW       W20048   7.154   9.841   3.714  0.0520  0.0158  0.0507
 5038PW      WP20049   7.104   9.735   3.638 -0.5428 -0.1854  0.6705
 5038PW      WM20050   7.055   9.906   3.639 -0.0844  0.0993  0.2959
 5039PW       W20051   7.963   9.759   9.442  0.0243  0.1831 -0.1281
 5039PW      WP20052   7.826   9.736   9.459  0.1111 -0.2467  0.0772
 5039PW      WM20053   8.032   9.637   9.440 -0.2201  0.0393  0.0172
 5040PW       W20054  11.172   9.919   9.488 -0.1179 -0.1421 -0.4669
 5040PW      WP20055  11.153  10.031   9.406  0.4545  0.2727 -0.0732
 5040PW      WM20056  11.310   9.917   9.510 -0.2120 -0.0955  0.2554
 5041PW       W20057   8.710   7.963   0.368 -0.0019 -0.0675 -0.2550
 5041PW      WP20058   8.658   7.891   0.260  0.3560 -0.2496 -0.3167
 5041PW      WM20059   8.824   8.027   0.317 -0.2071  0.5665  0.0366
 5042PW       W20060   5.191  10.680   1.536  0.0910  0.0041 -0.2248
 5042PW      WP20061   5.292  10.636   1.449 -0.0364 -0.3373 -0.2067
 5042PW      WM20062   5.228  10.610   1.651 -0.0594 -0.3423 -0.3788
 5043PW       W20063   9.650   5.144   9.539 -0.2239  0.4856 -0.1443
 5043PW      WP20064   9.654   5.095   9.670  0.0113  0.1180 -0.2801
 5043PW      WM20065   9.573   5.127   9.423  0.0511  0.7271 -0.3730
 5044PW       W20066   6.712  11.410   9.682 -0.1101  0.2735 -0.0286
 5044PW      WP20067   6.700  11.535   9.620  0.0100  0.1801 -0.2452
 5044PW      WM20068   6.753  11.341   9.567  0.4200  0.6976 -0.1150
 5045PW       W20069  10.108   4.507   4.155 -0.4859  0.3243 -0.0370
 5045PW      WP20070  10.174   4.626   4.122 -0.1073  0.1407  0.0334
 5045PW      WM20071  10.073   4.494   4.290  0.0584  0.0018  0.0921
 5046PW       W20072   7.733  12.079  12.407  0.5974  0.2247 -0.2385
 5046PW      WP20073   7.804  11.979  12.338  0.5254  0.1774 -0.2449
 5046PW      WM20074   7.800  11.975  12.473 -0.2709 -0.3223 -0.1362
 5047PW       W20075   9.714   4.108   4.128  0.1908  0.5570 -0.2160
 5047PW      WP20076   9.778   4.122   4.004  0.1571  0.6766 -0.2197
 5047PW      WM20077   9.611   4.142   4.039  0.0305  0.2794 -0.1468
 5048PW       W20078  10.064   9.971  10.162  0.2176 -0.0767 -0.2727
 5048PW      WP20079  10.184  10.006  10.099  0.3883 -0.7047 -0.3290
 5048PW      WM20080  10.183  10.008  10.227 -0.1500  0.1329  0.3229
 5049PW       W20081  10.426   6.455   3.521  0.1130 -0.2293 -0.1057
 5049PW      WP20082  10.370   6.347   3.590  0.0130 -0.2338 -0.1919
 5049PW      WM20083  10.491   6.405   3.408 -0.6090 -0.5948 -0.3901
 5050PW       W20084  11.288   9.121  12.436 -0.0807  0.2338 -0.3486
 5050PW      WP20085  11.424   9.148  12.456 -0.0555 -0.0937 -0.0104
 5050PW      WM20086  11.394   9.038  12.399 -0.1427  0.0628 -0.1511
 5051PW       W20087   3.872   3.203   9.947 -0.0796 -0.0779 -0.2657
 5051PW      WP20088   3.814   3.149   9.832 -0.2017 -0.1782 -0.1576
 5051PW      WM20089   3.870   3.070   9.990  0.1220 -0.0367 -0.1182
 5052PW       W20090   1.558   4.230   4.524 -0.5573 -0.0299  0.3295
 5052PW      WP20091   1.554   4.276   4.657 -0.0912  0.5370  0.1667
 5052PW      WM20092   1.463   4.220   4.422 -0.2853 -0.3071  0.0967
 5053PW       W20093   3.620   6.361  10.399 -0.0028 -0.2986 -0.3201
 5053PW      WP20094   3.523   6.436  10.332 -0.1343 -0.2510 -0.0813
 5053PW      WM20095   3.662   6.453  10.497 -0.1101 -0.4415 -0.1359
 5054PW       W20096   1.159   6.487  11.739 -0.0740 -0.4398  0.0912
 5054PW      WP20097   1.041   6.455  11.807 -0.4779 -0.1347 -0.4267
 5054PW      WM20098   1.284   6.452  11.791  0.3350  0.7042  0.0193
 5055PW       W20099   3.003   0.816   9.395 -0.0887 -0.3505  0.0121
 5055PW      WP20100   3.140   0.815   9.369 -0.0885  0.4458 -0.1337
 5055PW      WM20101   2.992   0.821   9.535 -0.1690 -0.0478 -0.0016
 5056PW       W20102   4.310   0.640   4.900 -0.1263  0.0291 -0.0610
 5056PW      WP20103   4.372   0.531   4.962 -0.3178  0.1062  0.2812
 5056PW      WM20104   4.448   0.668   4.906 -0.0545 -0.3107 -0.0300
 5057PW       W20105   5.282   5.113   1.428  0.2888  0.1223 -0.0694
 5057PW      WP20106   5.335   4.987   1.401  0.0804 -0.0274  0.1977
 5057PW      WM20107   5.250   5.076   1.559  0.1829 -0.0759 -0.1483
 5058PW       W20108   3.666   4.477   3.087 -0.1578 -0.1199  0.1135
 5058PW      WP20109   3.717   4.523   2.965 -0.1535 -0.4941 -0.0325
 5058PW      WM20110   3.790   4.503   3.146 -0.0244  0.3163 -0.3213
 5059PW       W20111  10.127   8.785   0.843 -0.2915 -0.1153  0.2128
 5059PW      WP20112  10.078   8.914   0.821  0.1394  0.0118 -0.0753
 5059PW      WM20113  10.170   8.798   0.975 -0.4032 -0.1651  0.2539
 5060PW       W20114   8.634   6.267   1.602  0.2344 -0.0469  0.3640
 5060PW      WP20115   8.519   6.218   1.665  0.0478 -0.3252 -0.1607
 5060PW      WM20116   8.658   6.358   1.706 -0.0195  0.2756  0.1473
 5061PW       W20117   0.761  11.647   1.180  0.1867 -0.2332 -0.1802
 5061PW      WP20118   0.741  11.781   1.212  0.3129 -0.2889  0.1433
 5061PW      WM20119   0.812  11.517   1.189 -0.1344 -0.3585 -0.1068
 5062PW       W20120   2.007   9.114   3.784 -0.3450  0.0082 -0.0152
 5062PW      WP20121   1.982   9.002   3.864  0.1817 -0.1522 -0.0529
 5062PW      WM20122   2.074   9.179   3.679 -0.2196  0.0426  0.0850
 5063PW       W20123   4.272   5.758  10.859  0.1613 -0.2835  0.1127
 5063PW      WP20124   4.135   5.786  10.850  0.1682  0.0972  0.8055
 5063PW      WM20125   4.248   5.636  10.924  0.5063 -0.2155  0.3822
 5064PW       W20126   9.925   9.394  10.314  0.2501 -0.2705 -0.1075
 5064PW      WP20127  10.065   9.398  10.305  0.2442 -0.4513 -0.3179
 5064PW      WM20128   9.905   9.258  10.288  0.3657 -0.3471  0.1924
 5065PW       W20129   2.528   9.945   0.755  0.2634  0.2184  0.0128
 5065PW      WP20130   2.569  10.075   0.788 -0.1957  0.2912  0.3408
 5065PW      WM20131   2.552   9.808   0.739 -0.2159  0.1500 -0.1960
 5066PW       W20132   0.843   9.750   8.388  0.0281  0.0503  0.1105
 5066PW      WP20133   0.925   9.645   8.433  0.0596 -0.0209 -0.1070
 5066PW      WM20134   0.770   9.843   8.462 -0.8869 -0.7466  0.3108
 5067PW       W20135  10.441   0.069   3.917 -0.2071  0.0690 -0.3113
 5067PW      WP20136  10.340   0.113   3.831 -0.6417  0.1358  0.2014
 5067PW      WM20137  10.403  -0.032   4.007  0.0547  0.1568 -0.0949
 5068PW       W20138   1.140  10.271  12.898  0.3798  0.4254 -0.1033
 5068PW      WP20139   1.273  10.310  12.917  0.2634  0.7771  0.0422
 5068PW      WM20140   1.223  10.181  12.830  0.1509  0.1640 -0.0427
 5069PW       W20141   5.684   1.063  12.104 -0.0518 -0.3973 -0.4055
 5069PW      WP20142   5.707   0.941  12.170 -0.4827 -0.2027  0.1354
 5069PW      WM20143   5.594   0.992  12.185  0.0320 -0.2399 -0.1709
 5070PW       W20144  10.363   2.104  13.397  0.2545  0.3848  0.0357
 5070PW      WP20145  10.399   2.108  13.262 -0.0516 -0.6219 -0.1137
 5070PW      WM20146  10.494   2.145  13.425  0.3614  0.2501 -0.2432
 5071PW       W20147  11.966   4.788   4.333 -0.1441 -0.1381 -0.6000
 5071PW      WP20148  11.986   4.651   4.347  0.4530 -0.0453 -0.4254
 5071PW      WM20149  11.933   4.893   4.246 -0.0380  0.1558 -0.2960
 5072PW       W20150   6.039  11.126  10.315  0.0093  0.2971  0.0798
 5072PW      WP20151   6.113  11.192  10.216  0.0859 -0.0643 -0.1159
 5072PW      WM20152   6.072  11.097  10.448 -0.3874 -0.4600  0.0427
 5073PW       W20153   3.421   9.196   3.059 -0.2585 -0.1044  0.3833
 5073PW      WP20154   3.467   9.225   3.188 -0.1054  0.4108  0.2246
 5073PW      WM20155   3.312   9.228   2.978  0.1221 -0.3627 -0.2647
 5074PW       W20156   3.243   9.397  12.028 -0.1791 -0.0678 -0.2955
 5074PW      WP20157   3.209   9.262  12.034  0.2795 -0.1928 -0.3309
 5074PW      WM20158   3.371   9.394  12.085 -0.2633  0.1231 -0.0883
 5075PW       W20159   5.712   5.663   5.434 -0.0826  0.5224 -0.0056
 5075PW      WP20160   5.583   5.611   5.417  0.1539 -0.0360 -0.2136
 5075PW      WM20161   5.823   5.712   5.364  0.0419  0.3671  0.0799
 5076PW       W20162  10.383  12.071  12.530  0.3324 -0.4699 -0.6934
 5076PW      WP20163  10.389  12.190  12.456 -0.3147  0.3467  0.4017
 5076PW      WM20164  10.372  11.996  12.647  0.2902  0.4111 -0.0863
 5077PW       W20165   8.205   6.650   2.074  0.4597  0.0710  0.1288
 5077PW      WP20166   8.318   6.703   2.011  0.3027  0.3774  0.0929
 5077PW      WM20167   8.189   6.514   2.104 -0.0332  0.1546  0.2876
 5078PW       W20168   9.592   5.172  11.139 -0.1916  0.4067 -0.4957
 5078PW      WP20169   9.487   5.093  11.090  0.0131 -0.1109 -0.1541
 5078PW      WM20170   9.657   5.291  11.170  0.3590 -0.0373  0.2234
 5079PW       W20171  11.950   7.691   9.913  0.0247  0.1178  0.3819
 5079PW      WP20172  12.020   7.580   9.961 -0.0603  0.1943  0.6925
 5079PW      WM20173  12.065   7.770   9.897 -0.0410  0.1182 -0.1920
 5080PW       W20174   8.851   6.385   5.053 -0.6061  0.0389  0.2344
 5080PW      WP20175   8.975   6.384   5.118 -0.2061  0.0600 -0.4808
 5080PW      WM20176   8.888   6.269   4.984  0.2428 -0.0892  0.8161
 5081PW       W20177  11.759   4.510   0.344  0.1148  0.3458 -0.5271
 5081PW      WP20178  11.866   4.435   0.392 -0.2465  0.1743  0.0630
 5081PW      WM20179  11.800   4.640   0.375  0.0476  0.2719 -0.1045
 5082PW       W20180   0.544   1.166  10.013  0.2728  0.3048 -0.1642
 5082PW      WP20181   0.469   1.242   9.924  0.1428 -0.2148 -0.5237
 5082PW      WM20182   0.536   1.222  10.141  0.6184  0.0499 -0.0192
 5083PW       W20183   9.415   3.480  10.177  0.0306 -0.2164 -0.2908
 5083PW      WP20184   9.458   3.569  10.276  0.4124 -0.2492 -0.4158
 5083PW      WM20185   9.455   3.390  10.077 -0.3054 -0.3214 -0.3345
 5084PW       W20186   5.549   0.826   0.627  0.5433  0.7197  0.1591
 5084PW      WP20187   5.549   0.893   0.504  0.7405  0.6665  0.1282
 5084PW      WM20188   5.647   0.742   0.574  0.0461 -0.0668  0.4074
 5085PW       W20189   1.429   7.731   3.885 -0.0512 -0.0478  0.0058
 5085PW      WP20190   1.547   7.702   3.955 -0.0583  0.2098  0.1319
 5085PW      WM20191   1.442   7.692   3.752 -0.2276 -0.7431  0.1713
 5086PW       W20192   3.719   5.250   8.393  0.1166 -0.0973  0.0902
 5086PW      WP20193   3.715   5.110   8.404 -0.1785 -0.1189 -0.2032
 5086PW      WM20194   3.652   5.369   8.419  0.1882 -0.0978  0.2869
 5087PW       W20195   9.630   2.295   1.094 -0.2064  0.2491 -0.1662
 5087PW      WP20196   9.557   2.177   1.110  0.2080  0.0454  0.3683
 5087PW      WM20197   9.654   2.330   0.960 -0.0340  0.2983 -0.1235
 5088PW       W20198   8.042   3.812   8.092 -0.0813 -0.4098 -0.0069
 5088PW      WP20199   8.170   3.828   8.146 -0.1913  0.1960  0.1063
 5088PW      WM20200   8.055   3.815   7.953 -0.2594 -0.1111 -0.0187
 5089PW       W20201   8.180   5.471   5.116  0.0409  0.0821  0.1991
 5089PW      WP20202   8.309   5.429   5.148  0.1173  0.1916  0.0402
 5089PW      WM20203   8.097   5.386   5.042 -0.0859  0.5333 -0.1968
 5090PW       W20204  10.174  11.267   9.967  0.4004  0.0815  0.3647
 5090PW      WP20205  10.090  11.246  10.077  0.0767  0.6088  0.2330
 5090PW      WM20206  10.221  11.173   9.874 -0.0523  0.2287 -0.0286
 5091PW       W20207   7.690   3.667   3.346  0.0000  0.2762  0.2564
 5091PW      WP20208   7.674   3.637   3.211  0.1356 -0.0581  0.3073
 5091PW      WM20209   7.618   3.597   3.445  0.3578  0.1728  0.4550
 5092PW       W20210  11.552   9.588   1.123  0.0135  0.2893  0.2479
 5092PW      WP20211  11.517   9.598   0.987  0.3987 -0.3106  0.0819
 5092PW      WM20212  11.640   9.493   1.174  0.0110 -0.0142 -0.2697
 5093PW       W20213   9.267   9.891   0.919 -0.0697 -0.1742 -0.2062
 5093PW      WP20214   9.346   9.938   1.024  0.0716  0.2143 -0.4780
 5093PW      WM20215   9.167   9.989   0.921 -0.2500 -0.3204  0.7703
 5094PW       W20216   7.448   4.698   3.992 -0.1109  0.0424  0.0250
 5094PW      WP20217   7.389   4.752   4.108  0.2212  0.3167  0.0749
 5094PW      WM20218   7.411   4.580   3.927 -0.6937  0.5955 -0.7520
 5095PW       W20219   5.840   3.927   8.344 -0.0115 -0.1000  0.2093
 5095PW      WP20220   5.755   4.035   8.318 -0.4110 -0.4405  0.0484
 5095PW      WM20221   5.870   3.938   8.208  0.3109 -0.1264  0.2734
 5096PW       W20222  10.507  11.557   2.906  0.0300  0.6627  0.0924
 5096PW      WP20223  10.616  11.640   2.881  0.2921  0.2068 -0.3660
 5096PW      WM20224  10.388  11.614   2.858 -0.4115  0.2060  0.5664
 5097PW       W20225  10.983   0.283   2.680 -0.1095 -0.0861 -0.1717
 5097PW      WP20226  11.045   0.278   2.806 -0.0200  0.4221 -0.1846
 5097PW      WM20227  10.854   0.335   2.691 -0.1627 -0.2828  0.2599
 5098PW       W20228   6.151  10.995   7.866  0.2802  0.2977 -0.3147
 5098PW      WP20229   6.203  10.868   7.893 -0.1807  0.0988 -0.3215
 5098PW      WM20230   6.232  11.024   7.977  0.2227  0.5225 -0.3303
 5099PW       W20231   3.157   0.556   8.470 -0.0211  0.1692  0.3400
 5099PW      WP20232   3.213   0.483   8.576  0.0863 -0.1193  0.0943
 5099PW      WM20233   3.276   0.622   8.440  0.2780 -0.2381  0.5780
 5100PW       W20234   5.014   0.088   4.918  0.3645  0.0278  0.0676
 5100PW      WP20235   5.110   0.187   4.945 -0.2538  0.6597  0.0955
 5100PW      WM20236   4.963  -0.034   4.961  0.1274 -0.0990 -0.5167
 5101PW       W20237   4.872   9.203   9.271 -0.1091  0.0459 -0.0511
 5101PW      WP20238   4.835   9.288   9.377 -0.1429  0.0091 -0.0336
 5101PW      WM20239   4.758   9.219   9.192 -0.0545 -0.4746 -0.2537
 5102PW       W20240   2.511   5.232  12.148 -0.5254 -0.2125  0.3321
 5102PW      WP20241   2.429   5.135  12.090 -0.3199 -0.0843 -0.2050
 5102PW      WM20242   2.600   5.165  12.233  0.0071  0.1167  0.0646
 5103PW       W20243   6.393   2.017   1.661 -0.2008 -0.4616 -0.0271
 5103PW      WP20244   6.448   1.997   1.788  0.2806  0.5129 -0.0327
 5103PW      WM20245   6.254   2.025   1.679 -0.2144  0.4443 -0.2877
 5104PW       W20246   4.911   5.924   3.576  0.1677 -0.1234 -0.3825
 5104PW      WP20247   4.791   5.882   3.519 -0.0707 -0.1981  0.1493
 5104PW      WM20248   5.051   5.918   3.562  0.2050 -0.7724  0.0442
 5105PW       W20249   8.899   0.070   2.817  0.1709 -0.0372 -0.1719
 5105PW      WP20250   8.973  -0.014   2.901 -0.3313 -0.4291 -0.0973
 5105PW      WM20251   8.806   0.016   2.728  0.1274  0.1480 -0.2416
 5106PW       W20252   5.578   8.187  10.395  0.1426 -0.2334  0.2009
 5106PW      WP20253   5.441   8.190  10.423 -0.0095 -0.0066 -0.4602
 5106PW      WM20254   5.695   8.226  10.328 -0.0614  0.1822  0.0729
 5107PW       W20255   3.499  11.800   1.857 -0.0832 -0.3579 -0.0366
 5107PW      WP20256   3.613  11.850   1.793 -0.4515  0.3450 -0.1937
 5107PW      WM20257   3.426  11.813   1.738  0.1167 -0.1314 -0.1374
 5108PW       W20258   3.434   8.479  11.709 -0.1849  0.1060  0.2602
 5108PW      WP20259   3.520   8.400  11.633 -0.2004 -0.1188  0.4688
 5108PW      WM20260   3.488   8.587  11.638  0.1521 -0.1893  0.0537
 5109PW       W20261   2.403   2.476  11.703 -0.2107  0.1052  0.1714
 5109PW      WP20262   2.377   2.541  11.582  0.0215 -0.3246 -0.1237
 5109PW      WM20263   2.510   2.431  11.624 -0.4365  0.4392 -0.3529
 5110PW       W20264   0.248  11.811   3.971 -0.3974 -0.0116 -0.0330
 5110PW      WP20265   0.135  11.793   3.890 -0.0731 -0.8808 -0.3583
 5110PW      WM20266   0.369  11.872   4.004 -0.2469 -0.0959 -0.4000
 5111PW       W20267   2.242   8.359   3.599 -0.2237 -0.0662  0.2915
 5111PW      WP20268   2.213   8.457   3.503  0.0087 -0.0189  0.2676
 5111PW      WM20269   2.209   8.414   3.724 -0.2683  0.0234  0.2404
 5112PW       W20270  10.184   1.239   1.771  0.0763 -0.1111  0.1750
 5112PW      WP20271  10.253   1.217   1.891  0.1698 -0.1161  0.1204
 5112PW      WM20272  10.132   1.109   1.769  0.0417 -0.1040  0.4276
 5113PW       W20273   1.826   8.645  10.599 -0.4152 -0.2196 -0.0579
 5113PW      WP20274   1.821   8.593  10.469 -0.5682 -0.0243 -0.1313
 5113PW      WM20275   1.900   8.535  10.554  0.2566  0.1102  0.1747
 5114PW       W20276   9.950   6.797   3.309 -0.2516  0.0208 -0.2128
 5114PW      WP20277  10.016   6.756   3.192  0.2189  0.1413  0.0017
 5114PW      WM20278  10.024   6.889   3.384 -0.2054 -0.2175  0.0405
 5115PW       W20279   6.331   9.598   1.165  0.1219  0.0872  0.0297
 5115PW      WP20280   6.436   9.637   1.080  0.1815 -0.1616 -0.0148
 5115PW      WM20281   6.268   9.479   1.129  0.0744  0.1078  0.0443
 5116PW       W20282  10.760   9.531   9.848 -0.2904 -0.0888  0.4611
 5116PW      WP20283  10.668   9.604   9.773  0.0402  0.3754  0.4860
 5116PW      WM20284  10.873   9.573   9.920  0.0528 -0.4581  0.1677
 5117PW       W20285   2.640  10.687   2.466 -0.1847 -0.0980  0.4782
 5117PW      WP20286   2.768  10.670   2.519 -0.1235 -0.2170  0.2978
 5117PW      WM20287   2.566  10.773   2.383  0.1136 -0.2346  0.0518
 5118PW       W20288   8.630  10.475   9.924  0.4990  0.2569  0.2858
 5118PW      WP20289   8.756  10.468   9.864  0.3001 -0.2210 -0.1026
 5118PW      WM20290   8.753  10.496   9.987  0.7920 -0.0754 -0.1459
 5119PW       W20291   9.736   4.497   1.095  0.0059 -0.0655 -0.7573
 5119PW      WP20292   9.875   4.480   1.092  0.0946  0.5402 -0.6436
 5119PW      WM20293   9.641   4.398   1.068 -0.2904  0.0852 -0.3134
 5120PW       W20294   6.063  10.570   1.178 -0.1187  0.0816  0.1130
 5120PW      WP20295   6.082  10.600   1.314 -0.3299 -0.5089  0.2893
 5120PW      WM20296   6.006  10.586   1.051  0.0135 -0.1127  0.0263
 5121PW       W20297   5.148   8.496  12.358  0.2013 -0.1518  0.3137
 5121PW      WP20298   5.061   8.407  12.296  0.2550 -0.0627  0.1075
 5121PW      WM20299   5.216   8.527  12.240 -0.2772 -0.6505 -0.1160
 5122PW       W20300  11.671   1.098  10.142  0.1999 -0.0208  0.1139
 5122PW      WP20301  11.546   1.143  10.187  0.1267  0.0157 -0.1226
 5122PW      WM20302  11.621   0.991  10.068 -0.1818 -0.2892  0.7159
 5123PW       W20303   6.298  10.012   0.985  0.4101 -0.2679 -0.0926
 5123PW      WP20304   6.222  10.053   0.875  0.2948 -0.2845 -0.0193
 5123PW      WM20305   6.193  10.105   0.988  0.1382 -0.5728  0.1830
 5124PW       W20306  11.368   8.115   1.708 -0.4052  0.3784 -0.4448
 5124PW      WP20307  11.297   7.997   1.729  0.1223  0.1606  0.3182
 5124PW      WM20308  11.488   8.052   1.671 -0.3442  0.5625 -0.5688
 5125PW       W20309   5.756   8.286   3.046 -0.0003  0.2678 -0.0545
 5125PW      WP20310   5.822   8.352   2.942  0.1508  0.2031 -0.0013
 5125PW      WM20311   5.779   8.184   2.953  0.3095 -0.0347  0.3387
 5126PW       W20312   0.736  11.695   0.012  0.1405 -0.1835  0.3553
 5126PW      WP20313   0.860  11.633  -0.006  0.2684  0.2377 -0.3787
 5126PW      WM20314   0.669  11.747   0.124  0.1116 -0.0076  0.2574
 5127PW       W20315  11.143   6.254   3.643 -0.1770 -0.2647  0.2155
 5127PW      WP20316  11.130   6.387   3.603  0.1308 -0.3408 -0.1635
 5127PW      WM20317  11.111   6.149   3.555  0.1976 -0.1017 -0.1320
 5128PW       W20318   1.490   2.290  11.375 -0.5252  0.1734  0.0049
 5128PW      WP20319   1.548   2.186  11.447  0.1107  0.5554  0.0788
 5128PW      WM20320   1.508   2.424  11.411  0.3361  0.0861 -0.0002
 5129PW       W20321   5.753  10.945   4.312  0.1758  0.5027 -0.1502
 5129PW      WP20322   5.772  10.895   4.183  0.3244 -0.1859  0.1176
 5129PW      WM20323   5.882  10.895   4.330  0.0604  0.1230 -0.3319
 5130PW       W20324   6.465   5.211   9.284  0.0941  0.6379  0.1656
 5130PW      WP20325   6.511   5.145   9.398  0.1750  0.1104 -0.1552
 5130PW      WM20326   6.460   5.262   9.153  0.3321  0.2955  0.0155
 5131PW       W20327  10.840   8.067   1.689  0.1592 -0.4366  0.1887
 5131PW      WP20328  10.784   8.036   1.564  0.1330  0.3615 -0.0283
 5131PW      WM20329  10.788   7.952   1.748 -0.0857 -0.2800  0.2817
 5132PW       W20330   9.691   7.445  11.288  0.2247 -0.0147 -0.4656
 5132PW      WP20331   9.753   7.569  11.304  0.1016 -0.0109  0.0453
 5132PW      WM20332   9.745   7.469  11.161 -0.2215  0.0812 -0.6486
 5133PW       W20333   5.569   8.903  11.743 -0.1738 -0.2568  0.0786
 5133PW      WP20334   5.543   8.810  11.844 -0.3233 -0.0033  0.2814
 5133PW      WM20335   5.429   8.900  11.731 -0.1392  0.1739 -0.8225
 5134PW       W20336  10.239   5.825  12.602 -0.3954 -0.4347 -0.1822
 5134PW      WP20337  10.306   5.772  12.492 -0.0220 -0.1023 -0.1289
 5134PW      WM20338  10.283   5.711  12.670  0.2576  0.0225  0.2150
 5135PW       W20339  11.706  11.848   0.377 -0.1565 -0.0053 -0.0032
 5135PW      WP20340  11.602  11.754   0.381 -0.1538 -0.0066  0.6513
 5135PW      WM20341  11.812  11.882   0.461 -0.0760  0.3916 -0.2553
 5136PW       W20342   2.898   7.647  12.636 -0.1685 -0.1189  0.1026
 5136PW      WP20343   2.845   7.639  12.765  0.5117  0.1132  0.4209
 5136PW      WM20344   3.035   7.616  12.636 -0.0974  0.1708  0.4173
 5137PW       W20345   7.623   7.920   2.263  0.0250  0.1095  0.0991
 5137PW      WP20346   7.757   7.959   2.263 -0.0011  0.2067  0.3137
 5137PW      WM20347   7.510   7.925   2.346 -0.1195  0.3255 -0.1009
 5138PW       W20348   4.623   1.655   0.247 -0.5023 -0.0286  0.0900
 5138PW      WP20349   4.662   1.738   0.354 -0.1773  0.1812 -0.1797
 5138PW      WM20350   4.635   1.517   0.262  0.0082 -0.0529 -0.3844
 5139PW       W20351   7.899   0.701   8.899  0.3309  0.0014 -0.3454
 5139PW      WP20352   7.874   0.839   8.905 -0.0646 -0.0765  0.4766
 5139PW      WM20353   7.949   0.732   9.027 -0.5490 -0.1108  0.0608
 5140PW       W20354   7.652  10.828  10.007 -0.1571 -0.3176  0.1825
 5140PW      WP20355   7.672  10.789   9.874 -0.3522  0.0248  0.0460
 5140PW      WM20356   7.734  10.715  10.015 -0.3752 -0.5170 -0.2286
 5141PW       W20357   7.245   9.144  12.489 -0.3203  0.3617  0.5596
 5141PW      WP20358   7.117   9.173  12.440 -0.1600  0.2515  0.0457
 5141PW      WM20359   7.327   9.172  12.598 -0.0800 -0.4520  0.6186
 5142PW       W20360   6.932  10.603   3.389  0.2514 -0.0539  0.0365
 5142PW      WP20361   7.013  10.641   3.280  0.1672  0.5589  0.1657
 5142PW      WM20362   6.798  10.563   3.386  0.3533 -0.4018 -0.1325
 5143PW       W20363   1.067   1.659   3.127  0.1302  0.1766  0.2529
 5143PW      WP20364   1.178   1.690   3.047 -0.0058  0.3449  0.1254
 5143PW      WM20365   0.995   1.713   3.233 -0.0295  0.5079 -0.0148
 5144PW       W20366   2.574   1.560  11.886  0.0795 -0.3153 -0.2223
 5144PW      WP20367   2.641   1.479  11.794 -0.0500 -0.1407 -0.4766
 5144PW      WM20368   2.480   1.575  11.783  0.0793 -0.0141 -0.1833
 5145PW       W20369   7.153   4.804   0.732 -0.1177  0.2264 -0.1436
 5145PW      WP20370   7.075   4.710   0.665  0.2057  0.0674 -0.3104
 5145PW      WM20371   7.232   4.770   0.843 -0.0563  0.2428 -0.1821
 5146PW       W20372   7.891   4.990   1.804 -0.1804 -0.1265 -0.0173
 5146PW      WP20373   7.807   4.918   1.719  0.1518  0.2321 -0.6871
 5146PW      WM20374   7.964   4.872   1.818 -0.4100 -0.2395  0.3088
 5147PW       W20375   0.321   2.730   2.106  0.3775 -0.0624  0.2229
 5147PW      WP20376   0.417   2.651   2.170 -0.2403 -0.9005  0.2122
 5147PW      WM20377   0.362   2.839   2.183  0.1286  0.4174 -0.2888
 5148PW       W20378   5.782   1.766   8.466  0.0690  0.2331  0.0705
 5148PW      WP20379   5.920   1.761   8.439  0.0893 -0.2283  0.2184
 5148PW      WM20380   5.740   1.770   8.333 -0.0094  0.3186  0.0978
 5149PW       W20381   7.188   1.880   3.709  0.0598  0.0149 -0.1757
 5149PW      WP20382   7.065   1.869   3.644  0.1385  0.0940 -0.3415
 5149PW      WM20383   7.311   1.894   3.775 -0.1438 -0.0327  0.2232
 5150PW       W20384  11.128   2.673  10.323  0.0841 -0.1693 -0.5040
 5150PW      WP20385  11.100   2.797  10.264  0.0780  0.1633  0.1581
 5150PW      WM20386  11.156   2.569  10.411 -0.1252  0.0459 -0.1714
 5151PW       W20387   2.422   3.573   8.564 -0.3813 -0.4244 -0.1414
 5151PW      WP20388   2.550   3.612   8.522 -0.5021 -0.1262 -0.2412
 5151PW      WM20389   2.310   3.581   8.481 -0.1418 -0.2331 -0.4566
 5152PW       W20390  10.112   3.408   8.359  0.1512  0.6765 -0.2029
 5152PW      WP20391  10.217   3.356   8.283  0.0236 -0.3129  0.2214
 5152PW      WM20392  10.216   3.324   8.400 -0.3242  0.2781  0.2520
 5153PW       W20393   1.904   1.301   9.783  0.0292 -0.0116  0.5434
 5153PW      WP20394   2.004   1.303   9.684 -0.2053 -0.6748  0.2600
 5153PW      WM20395   1.782   1.299   9.851 -0.1801  0.3227  0.1917
 5154PW       W20396   2.223   4.638  10.657 -0.1813  0.1690  0.0458
 5154PW      WP20397   2.139   4.563  10.739  0.0060  0.0092  0.0967
 5154PW      WM20398   2.296   4.518  10.662 -0.0966  0.2251  0.2148
 5155PW       W20399  11.688   8.214   0.288  0.2531 -0.0986  0.3249
 5155PW      WP20400  11.688   8.314   0.190  0.3904 -0.1265  0.2948
 5155PW      WM20401  11.679   8.088   0.226 -0.6202  0.2398 -0.3363
 5156PW       W20402   3.548   2.588  12.272  0.2608  0.1617 -0.1220
 5156PW      WP20403   3.534   2.697  12.359  0.3866  0.3172 -0.2918
 5156PW      WM20404   3.518   2.610  12.137 -0.5637  0.4575  0.0792
 5157PW       W20405   6.234   2.329   1.128  0.0971 -0.2179  0.2146
 5157PW      WP20406   6.312   2.235   1.197 -0.6093 -0.8264  0.2441
 5157PW      WM20407   6.175   2.247   1.225  0.2293 -0.5554  0.0180
 5158PW       W20408   6.110   7.203  12.333  0.2202  0.0879  0.0750
 5158PW      WP20409   6.128   7.193  12.195 -0.2703 -0.0235  0.0095
 5158PW      WM20410   5.971   7.214  12.339  0.2283  0.4656 -0.2481
 5159PW       W20411   9.036  11.034   0.700 -0.3009  0.1970  0.4359
 5159PW      WP20412   9.076  11.165   0.672  0.1809  0.0016  0.1313
 5159PW      WM20413   8.943  10.934   0.669  0.0998 -0.1632  0.3496
 5160PW       W20414  11.842   1.244   0.224  0.0470 -0.1751  0.0341
 5160PW      WP20415  11.963   1.232   0.154 -0.1062  0.3718 -0.3630
 5160PW      WM20416  11.749   1.322   0.293  0.4972  0.3190  0.1112
 5161PW       W20417   5.122   1.850   0.271 -0.0620  0.0992  0.1489
 5161PW      WP20418   5.057   1.960   0.214 -0.1872 -0.2317 -0.3814
 5161PW      WM20419   5.032   1.746   0.295 -0.5072  0.3643 -0.2927
 5162PW       W20420   0.315   2.829  11.730 -0.1124 -0.3540 -0.0022
 5162PW      WP20421   0.295   2.704  11.788 -0.0810 -0.4723 -0.2398
 5162PW      WM20422   0.196   2.827  11.656  0.0195 -0.0226 -0.2374
 5163PW       W20423   3.782   4.420   8.486 -0.2585 -0.0243 -0.1902
 5163PW      WP20424   3.707   4.307   8.522 -0.1925  0.0535  0.2150
 5163PW      WM20425   3.894   4.380   8.558 -0.1954  0.0093 -0.2693
 5164PW       W20426   4.485   1.331  10.862 -0.0577  0.2670 -0.0992
 5164PW      WP20427   4.520   1.385  10.987  0.3273  0.3296 -0.2273
 5164PW      WM20428   4.554   1.213  10.834  0.2012  0.4002 -0.0425
 5165PW       W20429   5.939   2.712  13.100 -0.1146  0.1537  0.5269
 5165PW      WP20430   5.842   2.793  13.159 -0.1390  0.3701  0.2052
 5165PW      WM20431   6.009   2.672  13.214 -0.0500  0.0799  0.4622
 5166PW       W20432   3.705   1.246   2.732 -0.0177  0.1003  0.1738
 5166PW      WP20433   3.762   1.164   2.634 -0.3769  0.3449 -0.2548
 5166PW      WM20434   3.619   1.307   2.824  0.0736 -0.3340  0.5707
 5167PW       W20435   5.153   6.917  11.028  0.1509 -0.3241  0.1793
 5167PW      WP20436   5.044   6.836  11.062 -0.7013  0.3751 -0.6257
 5167PW      WM20437   5.186   6.994  11.140 -0.5801  0.0950  0.1396
 5168PW       W20438  10.896   4.154  11.160 -0.0632  0.4951 -0.2836
 5168PW      WP20439  10.990   4.054  11.134 -0.3173  0.1684  0.0024
 5168PW      WM20440  10.782   4.143  11.079 -0.1626  0.6285 -0.1645
 5169PW       W20441   6.088   1.713   3.497  0.3408  0.8217 -0.5207
 5169PW      WP20442   5.999   1.749   3.598  0.0427  0.1897 -0.5401
 5169PW      WM20443   6.072   1.658   3.369  0.0412 -0.0284 -0.1532
 5170PW       W20444   8.551   3.732   1.233 -0.2910  0.0144 -0.1025
 5170PW      WP20445   8.421   3.769   1.272 -0.3891 -0.3669 -0.0516
 5170PW      WM20446   8.529   3.707   1.097  0.0353 -0.1077 -0.1364
 5171PW       W20447   8.144   0.053  11.158  0.1222 -0.5019 -0.0677
 5171PW      WP20448   8.258   0.061  11.078  0.1306  0.4805 -0.0148
 5171PW      WM20449   8.048   0.145  11.203 -0.0364 -0.8504  0.3444
 5172PW       W20450   1.051   0.540  12.648 -0.5044  0.1894 -0.1383
 5172PW      WP20451   0.999   0.537  12.778  0.1051 -0.6397  0.1339
 5172PW      WM20452   1.110   0.507  12.525  0.1757  0.1006  0.1850
 5173PW       W20453  10.311   5.480  13.316 -0.1220 -0.1579  0.1610
 5173PW      WP20454  10.235   5.582  13.258  0.0265  0.1358  0.4682
 5173PW      WM20455  10.338   5.346  13.283  0.2553 -0.0501  0.0105
 5174PW       W20456   3.344   0.948   2.498 -0.1166 -0.1338  0.0068
 5174PW      WP20457   3.324   1.040   2.396  0.2130  0.1825  0.2137
 5174PW      WM20458   3.476   0.909   2.472 -0.1138 -0.0663 -0.0814
 5175PW       W20459  11.493   8.616   3.824  0.0557  0.4229  0.2267
 5175PW      WP20460  11.526   8.592   3.690 -0.5574 -0.2281  0.1615
 5175PW      WM20461  11.411   8.530   3.898  0.3881 -0.1517 -0.0356
 5176PW       W20462   9.939   3.612   5.315  0.5311  0.1546  0.0048
 5176PW      WP20463   9.924   3.499   5.232 -0.1028  0.3879 -0.2349
 5176PW      WM20464   9.863   3.716   5.369 -0.3125 -0.3242 -0.1621
 5177PW       W20465   5.462   5.529   8.941 -0.3233 -0.0188  0.1112
 5177PW      WP20466   5.484   5.471   9.066  0.0208 -0.0174  0.0564
 5177PW      WM20467   5.381   5.615   8.865 -0.1587 -0.1294 -0.1972
 5178PW       W20468   7.856   1.503   0.852 -0.3556  0.3620 -0.0690
 5178PW      WP20469   7.930   1.618   0.884  0.4057 -0.1746  0.2529
 5178PW      WM20470   7.822   1.597   0.754  0.0797  0.2337 -0.3548
 5179PW       W20471  11.323   7.731   2.575  0.0629 -0.1918 -0.0221
 5179PW      WP20472  11.393   7.770   2.460  0.7592 -0.6092  0.2312
 5179PW      WM20473  11.242   7.622   2.542 -0.1024  0.0621 -0.5141
 5180PW       W20474   9.026   8.475  12.731 -0.4697 -0.1776 -0.3676
 5180PW      WP20475   9.004   8.365  12.647  0.3660 -0.5047 -0.2039
 5180PW      WM20476   9.055   8.577  12.640  0.1916 -0.1217 -0.1176
 5181PW       W20477  11.709  10.685  12.154 -0.1695  0.1867 -0.5055
 5181PW      WP20478  11.848  10.675  12.142 -0.1374 -0.1508 -0.0052
 5181PW      WM20479  11.621  10.695  12.046 -0.1540 -0.2640 -0.5697
 5182PW       W20480   2.122   7.423  13.139  0.2247  0.0503 -0.1032
 5182PW      WP20481   2.235   7.504  13.150  0.2288  0.0008  0.2792
 5182PW      WM20482   2.197   7.324  13.202  0.0301  0.1687  0.3307
 5183PW       W20483   5.896   1.842  12.473  0.0047 -0.0378  0.5469
 5183PW      WP20484   5.985   1.951  12.475 -0.2562  0.1879  0.3277
 5183PW      WM20485   5.918   1.738  12.383 -0.0725  0.5028 -0.1442
 5184PW       W20486   7.668   0.590   2.134 -0.0045 -0.3504  0.0298
 5184PW      WP20487   7.627   0.547   2.007  0.2587 -0.3380 -0.0603
 5184PW      WM20488   7.793   0.602   2.073  0.2651 -0.3197  0.5640
 5185PW       W20489   1.492   2.193  10.311 -0.3217 -0.1113  0.1411
 5185PW      WP20490   1.542   2.078  10.374 -0.2747 -0.2601 -0.1544
 5185PW      WM20491   1.516   2.314  10.245  0.3249 -0.3827 -0.1695
 5186PW       W20492   2.589   1.459   9.634  0.0457  0.4679 -0.0266
 5186PW      WP20493   2.650   1.584   9.648  0.5190  0.3211 -0.5858
 5186PW      WM20494   2.717   1.409   9.662  0.0177  0.5565  0.2811
 5187PW       W20495   5.198   9.179   8.810 -0.3938  0.4776 -0.0865
 5187PW      WP20496   5.107   9.139   8.712  0.1505  0.1009 -0.4662
 5187PW      WM20497   5.186   9.043   8.839 -0.3542  0.5067  0.0737
 5188PW       W20498  10.701   7.957  13.327 -0.1017  0.1341  0.4538
 5188PW      WP20499  10.731   7.821  13.348  0.5730  0.1790 -0.0410
 5188PW      WM20500  10.643   7.951  13.199 -0.5339 -0.0236  0.6466
 5189PW       W20501   5.754   1.918   3.791  0.1475  0.0028  0.0089
 5189PW      WP20502   5.624   1.866   3.797  0.0188  0.2832 -0.1845
 5189PW      WM20503   5.860   1.846   3.736 -0.2039 -0.4532 -0.1049
 5190PW       W20504   2.864   2.410   1.409 -0.0337 -0.2056 -0.1343
 5190PW      WP20505   2.800   2.510   1.336  0.3630  0.3462  0.2335
 5190PW      WM20506   2.948   2.461   1.309  0.2954  0.1562  0.3080
 5191PW       W20507   4.456   7.604   0.150  0.2525  0.0125  0.3421
 5191PW      WP20508   4.493   7.643   0.021 -0.2571 -0.5537  0.0013
 5191PW      WM20509   4.393   7.503   0.076 -0.0026  0.1552  0.3573
 5192PW       W20510   7.438   2.068  10.275  0.0340 -0.7001  0.3151
 5192PW      WP20511   7.311   2.127  10.283 -0.0149 -0.7567  0.0167
 5192PW      WM20512   7.436   2.048  10.414 -0.1440  0.0373  0.4392
 5193PW       W20513   5.812   2.024   9.497  0.0340 -0.2840  0.1245
 5193PW      WP20514   5.786   2.151   9.443  0.0096  0.0144  0.7821
 5193PW      WM20515   5.913   2.106   9.550 -0.2072 -0.2309  0.5208
 5194PW       W20516   5.506   8.473   4.234 -0.2683  0.0962 -0.0391
 5194PW      WP20517   5.564   8.348   4.258  0.1303  0.3249  0.2548
 5194PW      WM20518   5.448   8.594   4.196 -0.0398  0.1922 -0.0895
 5195PW       W20519   7.589   5.907   4.561 -0.4532  0.1958 -0.1665
 5195PW      WP20520   7.597   5.858   4.692  0.0442  0.0543 -0.2393
 5195PW      WM20521   7.501   5.973   4.646 -0.2701  0.2582 -0.0223
 5196PW       W20522   5.837   9.524   1.364  0.1586 -0.0260  0.0684
 5196PW      WP20523   5.841   9.415   1.452  0.0150  0.1760  0.3357
 5196PW      WM20524   5.724   9.488   1.289 -0.0359  0.3351  0.1717
 5197PW       W20525  11.682   5.715  10.399  0.1499  0.3807  0.2038
 5197PW      WP20526  11.547   5.677  10.405  0.2748 -0.1104  0.1628
 5197PW      WM20527  11.687   5.661  10.528  0.2705  0.1668  0.1125
 5198PW       W20528   7.670   1.551   8.961 -0.3857 -0.0242  0.1040
 5198PW      WP20529   7.769   1.482   8.889 -0.0968 -0.1140  0.5684
 5198PW      WM20530   7.662   1.626   8.843 -0.1192 -0.0343  0.0754
 5199PW       W20531   4.664   0.080   9.463 -0.1184 -0.2567 -0.0576
 5199PW      WP20532   4.556   0.059   9.549 -0.0131 -0.3771  0.0475
 5199PW      WM20533   4.746   0.155   9.547 -0.0324 -0.0574 -0.3147
 5200PW       W20534   4.172   6.083   2.800  0.0462  0.1870  0.0781
 5200PW      WP20535   4.169   6.094   2.661 -0.2576  0.2157  0.0827
 5200PW      WM20536   4.202   6.214   2.839  0.1771  0.2950 -0.3599
 5201PW       W20537   0.871  10.987   3.148 -0.1595  0.1970  0.2373
 5201PW      WP20538   0.746  10.984   3.210 -0.4006  0.1421 -0.2238
 5201PW      WM20539   0.959  10.922   3.235 -0.1312  0.0994  0.1384
 5202PW       W20540   6.169   6.717   2.612  0.1596 -0.0537 -0.3317
 5202PW      WP20541   6.216   6.724   2.481 -0.0600  0.3281 -0.3977
 5202PW      WM20542   6.109   6.601   2.663 -0.0998  0.1358 -0.1910
 5203PW       W20543   9.286   3.790  12.278 -0.0680 -0.2985  0.2920
 5203PW      WP20544   9.182   3.882  12.262  0.1487 -0.0806  0.0974
 5203PW      WM20545   9.262   3.857  12.158  0.3716  0.0946  0.4044
 5204PW       W20546  10.187   6.887   9.555  0.0190 -0.0489 -0.2535
 5204PW      WP20547  10.176   6.939   9.425 -0.1318  0.3702 -0.0822
 5204PW      WM20548  10.205   7.014   9.611  0.1169 -0.1721  0.0028
 5205PW       W20549   0.634   1.101   3.291  0.1469 -0.1304 -0.0278
 5205PW      WP20550   0.719   1.177   3.373 -0.0466  0.0481  0.0088
 5205PW      WM20551   0.603   0.973   3.338 -0.3064  0.0993  0.3393
 5206PW       W20552  11.020  11.966  10.853  0.1636  0.3029 -0.1610
 5206PW      WP20553  11.034  11.971  10.713 -0.0753  0.2384 -0.1898
 5206PW      WM20554  11.072  11.945  10.981 -0.2640  0.7985  0.1158
 5207PW       W20555   6.113  11.681  13.020 -0.1857  0.3180 -0.0236
 5207PW      WP20556   6.153  11.593  12.918 -0.2569  0.0749  0.1536
 5207PW      WM20557   6.218  11.759  12.971  0.0142 -0.0713 -0.2447
 5208PW       W20558  10.359   6.617   4.035 -0.1554 -0.5806 -0.2443
 5208PW      WP20559  10.331   6.742   3.979  0.2357 -0.2878  0.1675
 5208PW      WM20560  10.487   6.560   4.038  0.4554  0.6144  0.5746
 5209PW       W20561   9.072   0.780   4.564 -0.3319 -0.2199  0.5478
 5209PW      WP20562   9.076   0.884   4.657  0.0374  0.1026  0.1911
 5209PW      WM20563   8.996   0.752   4.450  0.0745  0.4102  0.0876
 5210PW       W20564   3.301   3.712   1.657  0.0066 -0.5739 -0.1578
 5210PW      WP20565   3.253   3.815   1.575  0.0275 -0.2291  0.2467
 5210PW      WM20566   3.341   3.688   1.789 -0.3175  0.3023  0.1398
 5211PW       W20567   4.874   6.738  12.170  0.1029  0.2015 -0.1257
 5211PW      WP20568   4.843   6.804  12.051  0.1059  0.3428 -0.0497
 5211PW      WM20569   4.988   6.795  12.111 -0.0304  0.2329 -0.3541
 5212PW       W20570   5.291   4.848   9.396  0.1788 -0.0065  0.2098
 5212PW      WP20571   5.383   4.899   9.489  0.5848 -0.4724  0.0834
 5212PW      WM20572   5.257   4.972   9.453 -0.3665 -0.0569  0.0253
 5213PW       W20573   1.867   0.518  12.157  0.1824 -0.2054  0.1191
 5213PW      WP20574   1.837   0.598  12.046 -0.4041 -0.0861  0.3487
 5213PW      WM20575   1.995   0.511  12.100  0.3057 -0.0040  0.3587
 5214PW       W20576   4.468   3.530   0.321  0.3027 -0.3595  0.2193
 5214PW      WP20577   4.372   3.601   0.248 -0.3057 -0.8684  0.4755
 5214PW      WM20578   4.509   3.561   0.191  0.2592 -0.1139  0.2623
 5215PW       W20579   6.740   3.696   1.284  0.3592  0.0467  0.4073
 5215PW      WP20580   6.801   3.662   1.163  0.3628  0.6251  0.2314
 5215PW      WM20581   6.752   3.740   1.416 -0.2951  0.0184  0.4954
 5216PW       W20582   2.109   9.832  11.523  0.2370  0.0137 -0.2212
 5216PW      WP20583   2.092   9.970  11.501 -0.1032  0.0821  0.3585
 5216PW      WM20584   2.079   9.845  11.659 -0.2942 -0.0409 -0.3217
 5217PW       W20585   5.791   8.865   4.514 -0.1755 -0.1993 -0.1372
 5217PW      WP20586   5.731   8.982   4.467 -0.0929 -0.3043 -0.5244
 5217PW      WM20587   5.872   8.821   4.620  0.1982 -0.1645 -0.3971
 5218PW       W20588   0.913   5.360   3.962  0.0730 -0.4497  0.0485
 5218PW      WP20589   0.780   5.314   3.954 -0.2506  0.3837  0.1698
 5218PW      WM20590   0.999   5.315   3.862 -0.1443 -0.5529 -0.0971
 5219PW       W20591   4.050   6.472  12.109  0.2912  0.3263 -0.1869
 5219PW      WP20592   4.183   6.513  12.125  0.3165  0.0290  0.5581
 5219PW      WM20593   4.013   6.457  11.974  0.0654  0.0233 -0.0968
 5220PW       W20594   9.998   3.982   4.868 -0.5032 -0.1532 -0.2473
 5220PW      WP20595   9.963   4.117   4.888 -0.1047 -0.0555 -0.1658
 5220PW      WM20596   9.943   4.028   4.989  0.2349  0.0486  0.0380
 5221PW       W20597   3.587   8.185   3.431 -0.0351 -0.1901 -0.4200
 5221PW      WP20598   3.570   8.047   3.442 -0.1487 -0.1390  0.2190
 5221PW      WM20599   3.693   8.275   3.445 -0.1888 -0.0640  0.0235
 5222PW       W20600   9.245   8.310   8.391  0.2860  0.0177  0.1670
 5222PW      WP20601   9.188   8.333   8.265 -0.3406 -0.0606  0.4157
 5222PW      WM20602   9.366   8.255   8.436  0.2325 -0.2687 -0.0254
 5223PW       W20603   2.813   0.990   2.384  0.0461 -0.3893  0.1507
 5223PW      WP20604   2.771   0.882   2.305 -0.3172  0.3233 -0.7202
 5223PW      WM20605   2.793   1.039   2.513  0.5833  0.3564 -0.0138
 5224PW       W20606   3.750   7.614   2.745 -0.0947  0.2936  0.0704
 5224PW      WP20607   3.746   7.754   2.748 -0.1260  0.3036 -0.2576
 5224PW      WM20608   3.635   7.651   2.674 -0.1448  0.0240  0.0060
 5225PW       W20609   2.971   8.712  11.733  0.4510 -0.1109 -0.3642
 5225PW      WP20610   2.988   8.845  11.774  0.1535 -0.2399  0.2209
 5225PW      WM20611   2.860   8.627  11.732  0.4849 -0.1636 -0.0430
 5226PW       W20612  11.260   7.662  13.333 -0.2325  0.6428 -0.2597
 5226PW      WP20613  11.146   7.654  13.252 -0.2601  0.1791 -0.1863
 5226PW      WM20614  11.158   7.665  13.429  0.1567 -0.1834  0.2340
 5227PW       W20615   9.406   1.564  11.370  0.1066 -0.5825 -0.1327
 5227PW      WP20616   9.531   1.521  11.417  0.0611 -0.6112 -0.0364
 5227PW      WM20617   9.441   1.649  11.265  0.2077 -0.2146  0.1860
 5228PW       W20618   3.251   4.435   9.523  0.3044  0.0462 -0.0065
 5228PW      WP20619   3.244   4.378   9.650 -0.6275 -0.3623 -0.1971
 5228PW      WM20620   3.246   4.316   9.448 -0.0536  0.2152 -0.2665
 5229PW       W20621  10.821  10.893   9.521 -0.1805  0.0522  0.2335
 5229PW      WP20622  10.854  10.896   9.385 -0.1587 -0.3760  0.2228
 5229PW      WM20623  10.909  11.000   9.540 -0.3046  0.1469  0.2875
 5230PW       W20624   2.935   9.422   1.833  0.1859 -0.2717 -0.2716
 5230PW      WP20625   2.969   9.494   1.948 -0.1301  0.1272 -0.4143
 5230PW      WM20626   2.968   9.464   1.703  0.0681  0.0346 -0.2067
 5231PW       W20627   8.989   3.823   4.661  0.2565 -0.0155 -0.2472
 5231PW      WP20628   8.878   3.904   4.636  0.3007  0.0424 -0.2562
 5231PW      WM20629   9.047   3.893   4.767  0.1580  0.2178 -0.3438
 5232PW       W20630   6.422   1.234  11.458 -0.1681  0.2310 -0.1965
 5232PW      WP20631   6.356   1.114  11.485  0.1820  0.0263 -0.2130
 5232PW      WM20632   6.411   1.373  11.449  0.3501  0.3025  0.0520
 5233PW       W20633   0.404   5.266  12.211 -0.0150 -0.2908  0.0662
 5233PW      WP20634   0.375   5.340  12.095 -0.2109 -0.2805  0.1198
 5233PW      WM20635   0.355   5.300  12.338  0.2014 -0.4280  0.1886
 5234PW       W20636   3.741   8.048   2.502 -0.0471  0.2363  0.0337
 5234PW      WP20637   3.601   8.058   2.499 -0.0377  0.3759  0.0098
 5234PW      WM20638   3.773   8.032   2.638  0.0609 -0.3658 -0.0488
 5235PW       W20639   6.966   0.690   9.502 -0.0031 -0.2218 -0.1338
 5235PW      WP20640   6.995   0.790   9.409 -0.3102  0.0026  0.0007
 5235PW      WM20641   6.943   0.616   9.619  0.4065  0.2599  0.2706
 5236PW       W20642   1.178   0.341   1.014 -0.3666 -0.2370  0.0842
 5236PW      WP20643   1.258   0.229   1.037  0.0720  0.0168 -0.1286
 5236PW      WM20644   1.213   0.382   1.143  0.2676 -0.4779  0.0053
 5237PW       W20645   5.276  11.503   9.095 -0.0050 -0.3264  0.0213
 5237PW      WP20646   5.403  11.452   9.124  0.3552  0.2464 -0.4430
 5237PW      WM20647   5.340  11.530   8.974  0.0005  0.1246  0.1162
 5238PW       W20648   2.642   3.071   9.330 -0.0953 -0.2006 -0.0631
 5238PW      WP20649   2.773   3.106   9.296 -0.0509  0.2277  0.4849
 5238PW      WM20650   2.574   2.949   9.312  0.0292 -0.3296  0.3046
 5239PW       W20651   9.468   3.483   4.614  0.9456 -0.2822  0.4116
 5239PW      WP20652   9.409   3.443   4.735 -0.1263  0.1502  0.0902
 5239PW      WM20653   9.510   3.403   4.507  0.4947 -0.1119  0.0916
 5240PW       W20654   6.302   0.553   0.049  0.3466  0.3306 -0.1636
 5240PW      WP20655   6.231   0.562  -0.071 -0.3363 -0.3252  0.1409
 5240PW      WM20656   6.372   0.441   0.095  0.1335  0.3498  0.2350
 5241PW       W20657   4.219   4.086   5.215  0.1952  0.0551 -0.1757
 5241PW      WP20658   4.275   4.213   5.236  0.4618 -0.0377 -0.3067
 5241PW      WM20659   4.187   4.121   5.083  0.1668 -0.0069 -0.1852
 5242PW       W20660   8.448   4.389   0.656 -0.6448 -0.3752  0.8544
 5242PW      WP20661   8.376   4.285   0.596 -0.1212 -0.0368 -0.5602
 5242PW      WM20662   8.407   4.521   0.677 -0.6380 -0.3251  0.5709
 5243PW       W20663  11.360   8.314   8.977 -0.3245 -0.2262 -0.1031
 5243PW      WP20664  11.293   8.371   9.086  0.4436  0.2796  0.1420
 5243PW      WM20665  11.288   8.205   8.927 -0.2613 -0.3023 -0.0296
 5244PW       W20666   3.563  12.170  12.270 -0.1751 -0.1383 -0.0454
 5244PW      WP20667   3.686  12.103  12.262 -0.0440  0.1161 -0.2574
 5244PW      WM20668   3.595  12.050  12.334  0.3720  0.0240  0.0201
 5245PW       W20669  11.934   5.855   4.039 -0.1177  0.0786 -0.3693
 5245PW      WP20670  11.973   5.725   4.002  0.2064  0.1157 -0.1787
 5245PW      WM20671  11.810   5.896   3.989  0.0656  0.5285 -0.4751
 5246PW       W20672  11.572   0.669  11.824  0.0996  0.2548  0.5053
 5246PW      WP20673  11.642   0.705  11.940  0.3970  0.0720  0.3913
 5246PW      WM20674  11.492   0.781  11.803 -0.3283 -0.1474 -0.2234
 5247PW       W20675   2.074   3.974   2.678  0.3374  0.0010 -0.0177
 5247PW      WP20676   2.093   3.848   2.735  0.3937  0.2464  0.5306
 5247PW      WM20677   1.989   4.058   2.750  0.0627  0.0305 -0.3600
 5248PW       W20678   4.699   5.772   2.629  0.2227  0.0213 -0.2792
 5248PW      WP20679   4.761   5.647   2.629  0.2163  0.0109  0.0981
 5248PW      WM20680   4.686   5.882   2.543 -0.0499  0.2903  0.0908
 5249PW       W20681   8.282   5.931   0.393  0.5388 -0.1156  0.3237
 5249PW      WP20682   8.183   5.955   0.297  0.1978 -0.8059  0.4722
 5249PW      WM20683   8.358   5.983   0.498  0.6628  0.5296 -0.0536
 5250PW       W20684   8.506  10.452  11.432  0.3770 -0.1557 -0.2129
 5250PW      WP20685   8.590  10.349  11.477  0.4835 -0.0292 -0.1202
 5250PW      WM20686   8.375  10.430  11.387  0.0480 -0.0493  0.6011
 5251PW       W20687  10.635   1.458  12.728 -0.3680 -0.6144  0.2291
 5251PW      WP20688  10.720   1.357  12.775  0.2838 -0.2028  0.0053
 5251PW      WM20689  10.531   1.422  12.814 -0.6361 -0.1721  0.1047
 5252PW       W20690   4.925   3.648   3.520 -0.0050  0.0152  0.0167
 5252PW      WP20691   4.814   3.585   3.463 -0.0017  0.0303 -0.0070
 5252PW      WM20692   5.037   3.724   3.556 -0.1832  0.2435  0.1062
 5253PW       W20693   8.283   3.113  11.958 -0.5868  0.1566  0.2954
 5253PW      WP20694   8.358   3.228  11.928 -0.2685 -0.1900 -0.3678
 5253PW      WM20695   8.307   3.044  12.077 -0.6910 -0.4895 -0.0374
 5254PW       W20696   5.481  11.569   4.509 -0.1447 -0.0143 -0.1941
 5254PW      WP20697   5.354  11.605   4.557 -0.1183  0.3053 -0.3484
 5254PW      WM20698   5.544  11.533   4.628  0.6603 -0.2518 -0.6540
 5255PW       W20699   2.135  10.781  10.246 -0.4518  0.2734 -0.4391
 5255PW      WP20700   2.147  10.710  10.126  0.4058  0.0215 -0.2389
 5255PW      WM20701   2.054  10.892  10.274 -0.4631  0.1615  0.0093
 5256PW       W20702   8.150   7.489   1.374  0.1932 -0.1800  0.1876
 5256PW      WP20703   8.117   7.383   1.290  0.1774 -0.2245  0.2494
 5256PW      WM20704   8.081   7.428   1.479 -0.1028 -0.1004  0.0431
 5257PW       W20705   0.185   1.257  12.686  0.3439  0.2521 -0.2782
 5257PW      WP20706   0.112   1.276  12.568 -0.6306 -0.1050  0.2130
 5257PW      WM20707   0.164   1.365  12.772  0.1074 -0.4279  0.5930
 5258PW       W20708   3.249  11.335  12.683  0.1762  0.0561 -0.3849
 5258PW      WP20709   3.299  11.314  12.812 -0.1422 -0.1048 -0.2821
 5258PW      WM20710   3.287  11.427  12.585 -0.0906  0.1234 -0.4296
 5259PW       W20711  12.021   9.311   3.732 -0.0129  0.4005 -0.1972
 5259PW      WP20712  11.916   9.345   3.646  0.1762  0.2176 -0.5116
 5259PW      WM20713  12.035   9.229   3.619 -0.1919 -0.3130  0.2689
 5260PW       W20714   7.967   7.223  10.306 -0.1519 -0.2319 -0.1369
 5260PW      WP20715   7.964   7.249  10.169 -0.1611  0.1226 -0.0740
 5260PW      WM20716   7.831   7.221  10.339 -0.1553 -0.8877 -0.1233
 5261PW       W20717   9.031   7.220  12.296  0.0944 -0.2829 -0.3746
 5261PW      WP20718   8.968   7.102  12.338 -0.2787  0.0508  0.0516
 5261PW      WM20719   9.143   7.273  12.361 -0.3916 -0.0221  0.3041
 5262PW       W20720   5.386   6.173   9.304 -0.3529  0.2739 -0.0304
 5262PW      WP20721   5.288   6.095   9.241  0.1091 -0.0648 -0.3582
 5262PW      WM20722   5.369   6.307   9.266 -0.1719  0.3305  0.0840
 5263PW       W20723   6.766   2.344   0.816 -0.0916  0.3207 -0.3050
 5263PW      WP20724   6.654   2.381   0.741 -0.4199 -0.3119 -0.1631
 5263PW      WM20725   6.761   2.426   0.929 -0.1123  0.1618 -0.1883
 5264PW       W20726  11.596   0.312  10.399 -0.1881  0.1460 -0.4111
 5264PW      WP20727  11.471   0.300  10.461 -0.0779 -0.2724 -0.2522
 5264PW      WM20728  11.671   0.424  10.361 -0.1228  0.0108 -0.6883
 5265PW       W20729  11.696  11.797  10.386  0.5159 -0.3312  0.1058
 5265PW      WP20730  11.651  11.893  10.295  0.1941 -0.0664  0.5211
 5265PW      WM20731  11.565  11.765  10.422  0.4888 -0.1236  0.2022
 5266PW       W20732   9.569  10.771   4.157  0.4436  0.1529  0.1237
 5266PW      WP20733   9.575  10.911   4.151  0.6457  0.1478  0.1973
 5266PW      WM20734   9.489  10.657   4.144 -0.1796  0.5768 -0.0315
 5267PW       W20735   2.090  11.085   4.118 -0.2997  0.0819 -0.3236
 5267PW      WP20736   2.106  10.959   4.058 -0.1310 -0.1541  0.1887
 5267PW      WM20737   1.973  11.134   4.177  0.1001  0.1661  0.4664
 5268PW       W20738   6.037   9.001   2.728 -0.0526 -0.0010 -0.2477
 5268PW      WP20739   5.975   8.917   2.634 -0.3643 -0.2708  0.1827
 5268PW      WM20740   6.066   8.868   2.762 -0.0934  0.1818  0.5980
 5269PW       W20741  10.381   0.497  10.165 -0.1023 -0.2042  0.0715
 5269PW      WP20742  10.268   0.554  10.105 -0.2123 -0.6757 -0.1889
 5269PW      WM20743  10.361   0.364  10.129  0.2777 -0.2231 -0.0890
 5270PW       W20744   2.516   1.309   3.158  0.1889 -0.0140 -0.1471
 5270PW      WP20745   2.580   1.276   3.278  0.0803  0.1185 -0.0505
 5270PW      WM20746   2.516   1.449   3.166 -0.2328 -0.0108 -0.0599
 5271PW       W20747   0.338   9.380  13.193 -0.3110 -0.5132  0.0794
 5271PW      WP20748   0.400   9.375  13.068 -0.5593  0.0374 -0.0779
 5271PW      WM20749   0.409   9.260  13.209  0.3818 -0.1752 -0.2465
 5272PW       W20750   5.766   5.517   1.396  0.2740 -0.0864 -0.2803
 5272PW      WP20751   5.745   5.425   1.292  0.3311 -0.1447 -0.2413
 5272PW      WM20752   5.843   5.590   1.304  0.0114  0.2836 -0.2157
 5273PW       W20753  10.148  11.693  12.396 -0.0030  0.0770 -0.1605
 5273PW      WP20754  10.097  11.786  12.487 -0.4464 -0.2722 -0.0334
 5273PW      WM20755  10.167  11.561  12.438 -0.4184 -0.0149 -0.2440
 5274PW       W20756  11.966   5.426  11.737  0.3815 -0.0689  0.0056
 5274PW      WP20757  11.963   5.351  11.855 -0.2744 -0.0128  0.0409
 5274PW      WM20758  11.883   5.518  11.671  0.5614 -0.0577 -0.2105
 5275PW       W20759   2.787   6.266   9.095 -0.1237 -0.0180  0.3351
 5275PW      WP20760   2.882   6.167   9.068  0.1871  0.3939 -0.2025
 5275PW      WM20761   2.881   6.369   9.107 -0.0466 -0.0864  0.3163
 5276PW       W20762   8.554   7.901   8.901 -0.4269  0.5647  0.0448
 5276PW      WP20763   8.511   7.769   8.886 -0.2540  0.4920  0.1655
 5276PW      WM20764   8.682   7.898   8.957 -0.4048 -0.4240  0.0346
 5277PW       W20765   6.109   2.202  12.384 -0.3475  0.0476  0.3280
 5277PW      WP20766   6.144   2.234  12.515  0.2662 -0.2062  0.2430
 5277PW      WM20767   6.055   2.077  12.419 -0.0390 -0.2874 -0.2989
 5278PW       W20768  10.793   9.716   4.716 -0.2743  0.5253 -0.0611
 5278PW      WP20769  10.726   9.651   4.611  0.0565 -0.1879  0.1369
 5278PW      WM20770  10.701   9.773   4.804 -0.8259 -0.3024 -0.0487
 5279PW       W20771   4.158   9.840   2.212 -0.3005 -0.2590  0.0801
 5279PW      WP20772   4.210   9.970   2.221 -0.2763 -0.2442 -0.2128
 5279PW      WM20773   4.061   9.747   2.174 -0.2413 -0.2220 -0.1748
 5280PW       W20774   1.164   1.548   4.276 -0.1537 -0.7193  0.0448
 5280PW      WP20775   1.132   1.663   4.202 -0.0727 -0.1650  0.8135
 5280PW      WM20776   1.036   1.605   4.271  0.1473 -0.0004 -0.1943
 5281PW       W20777   9.647   5.724   9.926  0.2580  0.2738 -0.1693
 5281PW      WP20778   9.546   5.680  10.012 -0.2924  0.5284 -0.6535
 5281PW      WM20779   9.685   5.749  10.059  0.3659 -0.0160 -0.1438
 5282PW       W20780  10.785  11.076   3.794  0.1517 -0.1629  0.6883
 5282PW      WP20781  10.921  11.107   3.813  0.2383 -0.2700  0.3006
 5282PW      WM20782  10.750  11.123   3.667  0.4966 -0.6747  0.3863
 5283PW       W20783  10.497   3.159   3.794 -0.2870  0.1743 -0.3133
 5283PW      WP20784  10.473   3.232   3.911  0.1730 -0.1822  0.0253
 5283PW      WM20785  10.366   3.126   3.832 -0.1334 -0.3132 -0.1643
 5284PW       W20786   0.976   4.724   3.448  0.1595 -0.6471 -0.1655
 5284PW      WP20787   0.864   4.774   3.380  0.0867 -0.0957  0.3152
 5284PW      WM20788   1.093   4.800   3.462 -0.2754  0.1037 -0.3142
 5285PW       W20789   6.919   9.002   3.992 -0.4707  0.0162 -0.0108
 5285PW      WP20790   6.821   8.940   3.914 -0.3965  0.0466 -0.1294
 5285PW      WM20791   6.996   9.112   4.030  0.1005 -0.4633  0.2967
 5286PW       W20792   0.536  10.661   9.972  0.0917  0.1004  0.4011
 5286PW      WP20793   0.407  10.649   9.919  0.3901  0.1895 -0.4101
 5286PW      WM20794   0.630  10.580  10.037 -0.1056 -0.2428  0.2688
 5287PW       W20795   5.997   0.579   2.284 -0.1825  0.3065 -0.2522
 5287PW      WP20796   6.095   0.593   2.185  0.3694 -0.1353  0.1942
 5287PW      WM20797   5.888   0.491   2.288  0.0077  0.0690 -0.1314
 5288PW       W20798   8.490   9.055   8.037 -0.1734  0.1450 -0.1670
 5288PW      WP20799   8.356   9.092   8.020 -0.2160  0.3805  0.5339
 5288PW      WM20800   8.551   9.101   8.154  0.3862  0.0497 -0.4070
 5289PW       W20801   2.568   2.206  11.211 -0.0986  0.4404  0.2717
 5289PW      WP20802   2.704   2.207  11.181 -0.0956 -0.0252  0.2359
 5289PW      WM20803   2.466   2.121  11.166 -0.0405  0.1713  0.6252
 5290PW       W20804   0.069  11.487  11.802 -0.2540 -0.1200 -0.2901
 5290PW      WP20805  -0.030  11.586  11.807 -0.2921 -0.1681  0.0994
 5290PW      WM20806   0.152  11.408  11.721  0.1591 -0.3150  0.2847
 5291PW       W20807   8.816   6.689  10.903 -0.0323 -0.1856  0.0034
 5291PW      WP20808   8.929   6.607  10.902  0.0319 -0.0963 -0.2193
 5291PW      WM20809   8.682   6.665  10.936 -0.1203  0.4123  0.1492
 5292PW       W20810   1.865   3.413  12.198  0.0649  0.0123 -0.4666
 5292PW      WP20811   1.957   3.518  12.202  0.2361 -0.1407 -0.2820
 5292PW      WM20812   1.748   3.490  12.191  0.0180  0.0413  0.2395
 5293PW       W20813   2.328   8.117   1.658  0.2073  0.0669 -0.1597
 5293PW      WP20814   2.215   8.101   1.578  0.0227  0.3940  0.0238
 5293PW      WM20815   2.445   8.042   1.674 -0.1378 -0.5429 -0.3397
 5294PW       W20816   6.498   3.280   0.461 -0.1126  0.1896 -0.0990
 5294PW      WP20817   6.535   3.410   0.424 -0.0971  0.2825  0.2218
 5294PW      WM20818   6.432   3.162   0.425 -0.1460 -0.0817  0.7279
 5295PW       W20819   5.762  10.860  10.680  0.0895  0.0722 -0.0428
 5295PW      WP20820   5.807  10.881  10.549  0.2663 -0.1370 -0.0163
 5295PW      WM20821   5.753  10.754  10.770 -0.4376  0.0556 -0.0980
 5296PW       W20822   8.622   1.587   3.603 -0.3480  0.0787 -0.1532
 5296PW      WP20823   8.654   1.505   3.495  0.0465  0.3593 -0.2621
 5296PW      WM20824   8.692   1.698   3.652  0.2127 -0.1695 -0.3524
 5297PW       W20825   0.615   0.213   0.496 -0.2352 -0.1680 -0.2110
 5297PW      WP20826   0.607   0.082   0.545  0.1479 -0.2695 -0.4033
 5297PW      WM20827   0.618   0.324   0.582 -0.4695 -0.0665 -0.3279
 5298PW       W20828   3.417   6.637   9.672  0.5867 -0.1090 -0.2575
 5298PW      WP20829   3.324   6.732   9.714  0.6871  0.0092 -0.2989
 5298PW      WM20830   3.493   6.742   9.619  0.2938  0.0740 -0.3272
 5299PW       W20831  11.263  10.937   8.783 -0.5014  0.4432  0.2570
 5299PW      WP20832  11.248  10.991   8.655  0.1238  0.2108  0.0675
 5299PW      WM20833  11.344  10.823   8.790 -0.6805  0.2856 -0.1182
 5300PW       W20834   3.398  11.301   2.250 -0.1412  0.2321  0.0566
 5300PW      WP20835   3.447  11.425   2.292  0.1681  0.2117 -0.2242
 5300PW      WM20836   3.388  11.184   2.325  0.0837  0.0531 -0.1840
 5301PW       W20837   2.545  11.879   1.098  0.1288 -0.0169 -0.4834
 5301PW      WP20838   2.489  11.840   1.220  0.7141  0.4438 -0.0335
 5301PW      WM20839   2.429  11.886   1.021 -0.3169 -0.0349  0.1507
 5302PW       W20840   0.892   9.801   1.483 -0.2902 -0.1940  0.1122
 5302PW      WP20841   0.916   9.853   1.611  0.4417  0.1739 -0.1487
 5302PW      WM20842   0.854   9.852   1.358  0.3029  0.1683  0.0632
 5303PW       W20843   5.528   4.687   2.082 -0.1229  0.4744 -0.3875
 5303PW      WP20844   5.560   4.820   2.113  0.9150  0.1198  0.3569
 5303PW      WM20845   5.516   4.582   1.990 -0.3550 -0.2772  0.4351
 5304PW       W20846   2.460   2.191  10.467  0.2781 -0.1015  0.0514
 5304PW      WP20847   2.534   2.247  10.572  0.2340 -0.1867  0.1294
 5304PW      WM20848   2.412   2.159  10.340  0.2079 -0.1177  0.0822
 5305PW       W20849   9.039   2.861   9.637 -0.1342  0.0145  0.2805
 5305PW      WP20850   9.087   2.982   9.688  0.1130 -0.1491  0.4505
 5305PW      WM20851   8.917   2.813   9.588 -0.0372 -0.0690  0.1201
 5306PW       W20852   9.269   5.163  12.511 -0.2570  0.0131 -0.0293
 5306PW      WP20853   9.275   5.026  12.536 -0.1304 -0.1155 -0.6766
 5306PW      WM20854   9.275   5.297  12.470  0.0295 -0.1329 -0.5153
 5307PW       W20855   3.074   5.250   3.526 -0.2943  0.0571 -0.2048
 5307PW      WP20856   3.172   5.205   3.615 -0.2118  0.6901  0.0504
 5307PW      WM20857   3.048   5.301   3.398 -0.6163  0.1011 -0.1272
 5308PW       W20858   1.478   3.717   1.889 -0.0976 -0.1992 -0.2968
 5308PW      WP20859   1.507   3.639   1.776  0.1797  0.2434 -0.5450
 5308PW      WM20860   1.583   3.632   1.928  0.0610  0.0699 -0.1235
 5309PW       W20861   5.714   5.250  12.776 -0.1080 -0.4051  0.2966
 5309PW      WP20862   5.683   5.351  12.869 -0.4108 -0.0677 -0.1464
 5309PW      WM20863   5.771   5.166  12.680 -0.2702 -0.1631 -0.0201
 5310PW       W20864   7.483   4.278  10.755  0.5544 -0.3123 -0.0938
 5310PW      WP20865   7.403   4.199  10.671 -0.0749  0.1170  0.0658
 5310PW      WM20866   7.417   4.399  10.728  0.5701 -0.3129 -0.1362
 5311PW       W20867   9.677   0.191  11.943  0.4218  0.3329 -0.4938
 5311PW      WP20868   9.575   0.274  11.989  0.3434  0.1631 -0.3569
 5311PW      WM20869   9.769   0.085  11.950 -0.1182 -0.1398  0.0389
 5312PW       W20870   0.787  11.678  12.433 -0.0496 -0.0830  0.1914
 5312PW      WP20871   0.654  11.717  12.417  0.0592  0.1889 -0.1159
 5312PW      WM20872   0.796  11.568  12.519  0.4481 -0.2807 -0.0937
 5313PW       W20873   4.727   2.785  10.014  0.3746 -0.1444  0.2210
 5313PW      WP20874   4.685   2.904  10.075  0.2932 -0.0585  0.0042
 5313PW      WM20875   4.790   2.780  10.139 -0.2099 -0.4749  0.5239
 5314PW       W20876   1.967   9.125   0.240 -0.7462 -0.3230 -0.1072
 5314PW      WP20877   1.971   9.174   0.371  0.1207 -0.5396 -0.0236
 5314PW      WM20878   1.989   9.101   0.104  0.1857  0.2155 -0.0922
 5315PW       W20879  12.070   9.785   1.016 -0.3190 -0.1638  0.2947
 5315PW      WP20880  12.038   9.749   0.885  0.0873 -0.4792  0.2746
 5315PW      WM20881  12.192   9.727   0.981 -0.3012  0.0910 -0.0967
 5316PW       W20882   7.694  10.055   9.801  0.1705  0.2805 -0.3893
 5316PW      WP20883   7.698  10.093   9.935 -0.1156  0.1274 -0.3348
 5316PW      WM20884   7.784   9.950   9.822  0.0771  0.2561 -0.0967
 5317PW       W20885   9.907   3.249   4.305  0.3557  0.1077  0.1321
 5317PW      WP20886   9.840   3.126   4.319  0.1618  0.2031  0.0587
 5317PW      WM20887   9.916   3.286   4.440 -0.2927  0.2906  0.1401
 5318PW       W20888   9.861   3.607  13.121 -0.3646  0.3161 -0.0796
 5318PW      WP20889   9.837   3.586  12.985 -0.2702 -0.4040 -0.0089
 5318PW      WM20890   9.988   3.547  13.117 -0.1598  0.7460 -0.3693
 5319PW       W20891   0.481   8.123   8.858  0.0430 -0.0839  0.7381
 5319PW      WP20892   0.460   8.107   8.721 -0.2406  0.3533  0.7200
 5319PW      WM20893   0.480   8.252   8.913 -0.3066  0.2189  0.0794
 5320PW       W20894   5.718   4.033   2.709 -0.3852  0.0659 -0.0065
 5320PW      WP20895   5.754   4.027   2.574 -0.2477 -0.0322  0.0345
 5320PW      WM20896   5.729   4.115   2.823  0.2555 -0.0642  0.0391
 5321PW       W20897  11.793   9.101   8.616  0.1490  0.3402  0.1711
 5321PW      WP20898  11.774   9.208   8.528  0.3633  0.0251 -0.2752
 5321PW      WM20899  11.822   8.981   8.549 -0.9694 -0.1354  0.4263
 5322PW       W20900  11.774   7.629   1.124  0.0442 -0.0587  0.3233
 5322PW      WP20901  11.875   7.724   1.143  0.1245 -0.0148 -0.2476
 5322PW      WM20902  11.778   7.550   1.240  0.5174 -0.0065  0.3499
 5323PW       W20903   8.795   0.701   0.100 -0.3053  0.0027 -0.2833
 5323PW      WP20904   8.667   0.648   0.120 -0.2236 -0.0230  0.2220
 5323PW      WM20905   8.829   0.739   0.230 -0.2571 -0.1382 -0.2539
 5324PW       W20906   2.871  12.066  12.342 -0.0104  0.1933  0.2936
 5324PW      WP20907   2.798  12.157  12.420 -0.4998 -0.0641  0.1606
 5324PW      WM20908   2.836  12.149  12.234  0.1735  0.2189  0.2517
 5325PW       W20909   8.344   6.453   3.978  0.0159  0.6042 -0.1369
 5325PW      WP20910   8.213   6.492   4.009 -0.0962 -0.0121  0.2271
 5325PW      WM20911   8.481   6.473   3.955 -0.0044  0.3576 -0.5116
 5326PW       W20912   9.258   6.408   1.305  0.4779  0.0436  0.2975
 5326PW      WP20913   9.293   6.294   1.232 -0.1333  0.3490 -0.5654
 5326PW      WM20914   9.236   6.428   1.442  0.8308 -0.1204  0.3848
 5327PW       W20915   4.459   8.428   1.877  0.2403  0.0650  0.0920
 5327PW      WP20916   4.405   8.298   1.879 -0.2962  0.2737  0.3636
 5327PW      WM20917   4.494   8.460   1.746 -0.2750 -0.1172 -0.1048
 5328PW       W20918   2.609   0.233   8.735 -0.1514 -0.0261 -0.1353
 5328PW      WP20919   2.740   0.184   8.732 -0.1080  0.0939 -0.2392
 5328PW      WM20920   2.679   0.349   8.771 -0.9383  0.4225  0.0883
 5329PW       W20921   4.686   3.203   2.247 -0.0324 -0.0417  0.0922
 5329PW      WP20922   4.630   3.293   2.339 -0.0257  0.1861 -0.1219
 5329PW      WM20923   4.554   3.157   2.258  0.0146 -0.1511  0.2263
 5330PW       W20924   1.868   8.289   1.635  0.1785 -0.3692  0.1216
 5330PW      WP20925   1.752   8.330   1.700  0.2475 -0.6815  0.4562
 5330PW      WM20926   1.888   8.245   1.766  0.2355 -0.5256  0.0607
 5331PW       W20927   9.836   7.084   1.158  0.1421  0.0883  0.3366
 5331PW      WP20928   9.840   7.099   1.297  0.2172  0.0887  0.3344
 5331PW      WM20929   9.862   7.172   1.052 -0.2081  0.0724  0.2314
 5332PW       W20930   8.061   5.431   0.827  0.2834  0.0817 -0.5649
 5332PW      WP20931   8.004   5.531   0.906  0.0237 -0.0547 -0.5741
 5332PW      WM20932   8.152   5.487   0.918  0.2678  0.0919 -0.5558
 5333PW       W20933   6.544   2.433   5.520  0.0365 -0.3552 -0.4628
 5333PW      WP20934   6.665   2.485   5.570 -0.3700  0.2691 -0.0536
 5333PW      WM20935   6.528   2.475   5.388 -0.2887  0.1770 -0.2723
 5334PW       W20936   3.191   0.510   3.322 -0.7172 -0.2262 -0.0779
 5334PW      WP20937   3.253   0.393   3.278  0.1134  0.0888  0.1562
 5334PW      WM20938   3.242   0.478   3.449  0.1399  0.3140 -0.2462
 5335PW       W20939   3.720   2.980  10.733  0.1630  0.1191  0.2944
 5335PW      WP20940   3.810   2.966  10.626 -0.4350  0.1902 -0.2483
 5335PW      WM20941   3.696   3.114  10.702 -1.1261 -0.1656 -0.2661
 5336PW       W20942  11.036   2.454   1.905 -0.0991  0.0931  0.2231
 5336PW      WP20943  11.003   2.555   1.813  0.1097 -0.1073 -0.0815
 5336PW      WM20944  10.906   2.403   1.903 -0.0691  0.0167  0.0471
 5337PW       W20945   2.827   7.369   4.651 -0.2520 -0.2037 -0.1669
 5337PW      WP20946   2.893   7.247   4.637  0.4144  0.0676  0.3233
 5337PW      WM20947   2.767   7.312   4.763  0.1999 -0.3702  0.0011
 5338PW       W20948   2.095   9.204   3.217  0.3121 -0.1205 -0.3428
 5338PW      WP20949   2.055   9.072   3.195 -0.2144 -0.0439  0.0497
 5338PW      WM20950   2.103   9.300   3.116  0.5745  0.6227  0.3324
 5339PW       W20951   1.266  11.984   3.368 -0.2150  0.3988 -0.0043
 5339PW      WP20952   1.355  12.063   3.295 -0.1569  0.1769 -0.1796
 5339PW      WM20953   1.150  12.048   3.412 -0.2161  0.0336  0.5848
 5340PW       W20954  10.471   9.964   3.285 -0.1292 -0.3173 -0.0795
 5340PW      WP20955  10.576  10.054   3.262 -0.1978 -0.3225 -0.4575
 5340PW      WM20956  10.421   9.878   3.186  0.1654 -0.4819 -0.0930
 5341PW       W20957   7.465   8.072  10.228  0.1847 -0.3621 -0.2108
 5341PW      WP20958   7.451   8.208  10.199  0.1127 -0.4133 -0.4240
 5341PW      WM20959   7.392   8.082  10.109  0.0768  0.0313 -0.1188
 5342PW       W20960   8.266   6.971   4.835 -0.0403  0.0593 -0.2043
 5342PW      WP20961   8.337   6.891   4.926  0.1604  0.4253 -0.0263
 5342PW      WM20962   8.269   7.068   4.735 -0.5021  0.0526 -0.2391
 5343PW       W20963   9.189   2.432   2.851 -0.3788 -0.0905  0.1394
 5343PW      WP20964   9.324   2.397   2.836 -0.4090 -0.1438 -0.0109
 5343PW      WM20965   9.217   2.431   2.714  0.3457  0.2397  0.2607
 5344PW       W20966   6.735  11.543  12.405 -0.3614 -0.1975 -0.2434
 5344PW      WP20967   6.807  11.661  12.386 -0.4086 -0.1064  0.1137
 5344PW      WM20968   6.623  11.577  12.482  0.0937  0.1856  0.2927
 5345PW       W20969  10.039  12.070   2.538  0.1784  0.1503 -0.3372
 5345PW      WP20970  10.082  12.176   2.618  0.2394  0.2011 -0.4358
 5345PW      WM20971  10.129  12.013   2.447 -0.1606 -0.5651 -0.2582
 5346PW       W20972   4.770   5.035   4.273  0.3508  0.0601 -0.3442
 5346PW      WP20973   4.885   4.992   4.339  0.0861 -0.2597 -0.0712
 5346PW      WM20974   4.739   5.007   4.407 -0.0314 -0.4947 -0.5297
 5347PW       W20975  11.496   7.506   3.965 -0.4451 -0.1519 -0.1817
 5347PW      WP20976  11.396   7.580   3.900  0.0206  0.2549 -0.4676
 5347PW      WM20977  11.386   7.514   4.053 -0.0595  0.2500  0.2968
 5348PW       W20978   8.043  11.172   2.166  0.0859  0.4152 -0.0627
 5348PW      WP20979   7.916  11.164   2.107  0.1226  0.2316 -0.1219
 5348PW      WM20980   8.034  11.204   2.302 -0.4016  0.1680 -0.0275
 5349PW       W20981   8.929   1.037   3.188 -0.1157  0.0725 -0.1450
 5349PW      WP20982   8.796   0.997   3.177 -0.0343 -0.4335  0.4305
 5349PW      WM20983   8.967   0.903   3.171  0.0930  0.1297 -0.1427
 5350PW       W20984   3.517  10.837   4.235  0.2527  0.1095 -0.1492
 5350PW      WP20985   3.593  10.945   4.189  0.2216  0.2428  0.1005
 5350PW      WM20986   3.416  10.808   4.142 -0.2216  0.7120  0.1424
 5351PW       W20987   9.938   2.723   0.572 -0.3065 -0.2754 -0.2565
 5351PW      WP20988   9.845   2.700   0.674  0.5563 -0.1818  0.6230
 5351PW      WM20989   9.917   2.825   0.665 -0.2263 -0.5543  0.0771
 5352PW       W20990  10.270   7.848   0.281  0.1182 -0.0250  0.0614
 5352PW      WP20991  10.201   7.901   0.171 -0.4110 -0.2243  0.2782
 5352PW      WM20992  10.328   7.726   0.317  0.2419  0.0320  0.0559
 5353PW       W20993  11.077   8.303  10.658 -0.0191 -0.2103 -0.0532
 5353PW      WP20994  11.057   8.250  10.787 -0.2069 -0.1886 -0.0727
 5353PW      WM20995  11.177   8.341  10.569  0.1460 -0.1886  0.1365
 5354PW       W20996   1.271   7.236   3.947 -0.0447  0.3550  0.1994
 5354PW      WP20997   1.332   7.171   3.839  0.1290  0.7243  0.0674
 5354PW      WM20998   1.182   7.128   3.957  0.2750  0.0397 -0.1878
 5355PW       W20999   9.343   3.787   1.303 -0.0647  0.4023  0.2003
 5355PW      WP21000   9.247   3.701   1.249  0.3529 -0.0941  0.2107
 5355PW      WM21001   9.462   3.860   1.311  0.1802  0.0661 -0.2235
 5356PW       W21002   0.912  10.195   0.549  0.0607 -0.2147 -0.0308
 5356PW      WP21003   0.905  10.332   0.574 -0.4738 -0.1367 -0.4993
 5356PW      WM21004   0.923  10.160   0.414  0.1083  0.1024 -0.1123
 5357PW       W21005  10.550   3.353   1.164 -0.1464 -0.3001  0.3191
 5357PW      WP21006  10.502   3.232   1.112 -0.2861 -0.1064 -0.0155
 5357PW      WM21007  10.673   3.303   1.207  0.2441  0.5295  0.2680
 5358PW       W21008  10.930  10.254   4.228  0.0354 -0.3516  0.0734
 5358PW      WP21009  10.812  10.308   4.281  0.5233  0.3055  0.6003
 5358PW      WM21010  10.937  10.381   4.169 -0.1751 -0.4688 -0.2151
 5359PW       W21011   0.265   8.968  12.912  0.2136 -0.0103  0.2619
 5359PW      WP21012   0.243   9.052  12.803 -0.6052 -0.1400  0.3010
 5359PW      WM21013   0.381   8.967  12.834 -0.1101 -0.1334 -0.2361
 5360PW       W21014   7.030  11.481   4.079 -0.5709  0.0070 -0.1765
 5360PW      WP21015   7.078  11.500   3.949  0.5137  0.2394  0.2033
 5360PW      WM21016   6.944  11.423   4.174  0.0799 -0.0071  0.4516
 5361PW       W21017   2.928   1.596   4.452 -0.3845  0.6033 -0.1970
 5361PW      WP21018   2.983   1.621   4.578  0.0458 -0.2816 -0.1754
 5361PW      WM21019   2.848   1.609   4.337 -0.0902  0.2735 -0.4504
 5362PW       W21020   3.736   3.818   1.293 -0.3418  0.0757 -0.5803
 5362PW      WP21021   3.604   3.804   1.338 -0.1540  0.1376  0.0350
 5362PW      WM21022   3.807   3.718   1.360 -0.4305  0.3327 -0.0827
 5363PW       W21023   9.026  10.464   9.012 -0.3880  0.2854 -0.1737
 5363PW      WP21024   9.016  10.513   8.881  0.1722  0.6578 -0.0990
 5363PW      WM21025   9.058  10.348   9.083 -0.1340  0.1474 -0.4976
 5364PW       W21026   9.000   7.998   8.955 -0.2668  0.2720 -0.3260
 5364PW      WP21027   8.916   7.929   9.043 -0.1507  0.4223 -0.0937
 5364PW      WM21028   9.009   7.895   8.860  0.3230 -0.0537  0.0521
 5365PW       W21029   6.201   7.700  13.083  0.0320 -0.1903  0.5289
 5365PW      WP21030   6.078   7.721  13.020  0.2820  0.5691  0.2323
 5365PW      WM21031   6.079   7.739  13.139 -0.3517 -0.2628 -0.1957
 5366PW       W21032  10.783   7.318  11.280 -0.3496 -0.1674 -0.3100
 5366PW      WP21033  10.669   7.290  11.356 -0.2353 -0.3373 -0.2010
 5366PW      WM21034  10.806   7.188  11.324  0.4254  0.0185 -0.0894
 5367PW       W21035   5.176   0.486  10.257  0.3095  0.1882 -0.1594
 5367PW      WP21036   5.186   0.441  10.125 -0.2283 -0.3923 -0.0258
 5367PW      WM21037   5.133   0.569  10.153  0.3914  0.1774 -0.2029
 5368PW       W21038   1.690   9.198   4.605 -0.0318  0.3618  0.6853
 5368PW      WP21039   1.558   9.159   4.582  0.0198  0.2866  0.5082
 5368PW      WM21040   1.795   9.284   4.571 -0.0461  0.0426 -0.3695
 5369PW       W21041   9.977   7.975  13.324 -0.0196  0.0097  0.1402
 5369PW      WP21042   9.961   8.065  13.218 -0.0515  0.1945  0.2994
 5369PW      WM21043  10.068   7.997  13.428  0.1044  0.4146 -0.0425
 5370PW       W21044   9.843  11.039   1.112  0.1025  0.1230 -0.1918
 5370PW      WP21045   9.854  11.178   1.107  0.1339  0.1136 -0.4348
 5370PW      WM21046   9.814  10.938   1.020 -0.4999  0.1421 -0.0472
 5371PW       W21047   6.337   0.375   4.738  0.0766 -0.0245 -0.1474
 5371PW      WP21048   6.210   0.373   4.797 -0.1712  0.8355 -0.5648
 5371PW      WM21049   6.436   0.401   4.834 -0.1463  0.2339  0.0205
 5372PW       W21050   3.532   0.420   2.460 -0.2186 -0.3456  0.1781
 5372PW      WP21051   3.537   0.325   2.563 -0.0855 -0.5949 -0.0507
 5372PW      WM21052   3.668   0.387   2.451 -0.0965  0.0389  0.4859
 5373PW       W21053   5.794   4.275  11.399 -0.4825  0.1952 -0.4673
 5373PW      WP21054   5.773   4.281  11.538 -0.4657 -0.3959 -0.4264
 5373PW      WM21055   5.786   4.136  11.415 -0.1538  0.2037 -0.1674
 5374PW       W21056   6.498   2.122   4.279  0.0862  0.4501  0.1520
 5374PW      WP21057   6.470   2.233   4.199 -0.3842  0.4190  0.2592
 5374PW      WM21058   6.576   2.136   4.395 -0.1488  0.1805  0.3516
 5375PW       W21059   3.345   3.645   3.002  0.2410 -0.3298 -0.0536
 5375PW      WP21060   3.336   3.671   2.865 -0.4083 -0.1799  0.0044
 5375PW      WM21061   3.378   3.634   2.866 -0.2702  0.4284 -0.2749
 5376PW       W21062   4.751   3.702   1.304  0.1917  0.4511 -0.5367
 5376PW      WP21063   4.657   3.752   1.396  0.4345 -0.0739  0.0320
 5376PW      WM21064   4.769   3.564   1.296  0.0105  0.3954 -0.1233
 5377PW       W21065   1.931  10.558  11.432 -0.2090 -0.1324  0.0854
 5377PW      WP21066   1.839  10.466  11.381 -0.0247 -0.0865 -0.3455
 5377PW      WM21067   2.019  10.635  11.356  0.4000 -0.7352  0.1372
 5378PW       W21068   6.341   5.181   3.878  0.1388  0.5825 -0.3131
 5378PW      WP21069   6.444   5.134   3.796  0.2474  0.3537 -0.0527
 5378PW      WM21070   6.389   5.274   3.971 -0.3653 -0.0521  0.6620
 5379PW       W21071   9.546  10.990   3.338  0.3925  0.0386 -0.4752
 5379PW      WP21072   9.683  11.010   3.318  0.3485  0.4708 -0.3975
 5379PW      WM21073   9.565  11.071   3.451 -0.4794 -0.0582 -0.2160
 5380PW       W21074   6.379  10.706   5.248  0.0591 -0.1161 -0.1817
 5380PW      WP21075   6.452  10.607   5.182  0.4179 -0.1327  0.2175
 5380PW      WM21076   6.287  10.601   5.240 -0.1770  0.1057 -0.4565
 5381PW       W21077   5.643  11.420   9.933 -0.2663 -0.0272 -0.0454
 5381PW      WP21078   5.575  11.540   9.909 -0.0096  0.1076 -0.1238
 5381PW      WM21079   5.586  11.351   9.826 -0.4171  0.2633 -0.1571
 5382PW       W21080  10.659   8.399  12.498 -0.3092 -0.1482 -0.0353
 5382PW      WP21081  10.573   8.289  12.486 -0.0764 -0.3057 -0.3154
 5382PW      WM21082  10.694   8.530  12.533 -0.4779 -0.0530 -0.2159
 5383PW       W21083   1.511   3.931   9.335 -0.0494  0.0880  0.5403
 5383PW      WP21084   1.628   3.937   9.411  0.3429  0.0952 -0.0265
 5383PW      WM21085   1.460   4.023   9.428 -0.3664  0.0426  0.4166
 5384PW       W21086   8.672   2.747   3.785 -0.2951  0.0406 -0.0758
 5384PW      WP21087   8.576   2.763   3.886 -0.1820 -0.2728  0.0915
 5384PW      WM21088   8.622   2.616   3.793  0.0402 -0.0904 -0.0261
 5385PW       W21089   7.826   0.030   8.261  0.2776 -1.0039  0.5773
 5385PW      WP21090   7.869   0.161   8.289  0.0095 -0.7306 -0.1476
 5385PW      WM21091   7.711   0.069   8.331  0.1529 -0.0697 -0.0406
 5386PW       W21092   0.828   1.187   5.299 -0.0434 -0.2970 -0.0213
 5386PW      WP21093   0.709   1.144   5.239 -0.1843  0.1267 -0.0629
 5386PW      WM21094   0.920   1.273   5.360  0.1023 -0.2735 -0.2691
 5387PW       W21095   2.955   7.676   3.839 -0.2194  0.0642  0.4358
 5387PW      WP21096   2.825   7.730   3.839 -0.1541  0.2245  0.3581
 5387PW      WM21097   2.956   7.625   3.969  0.0241 -0.3327  0.2874
 5388PW       W21098   8.845   9.029   0.167  0.1249 -0.2113 -0.0317
 5388PW      WP21099   8.883   9.090   0.287 -0.0235 -0.4910  0.1627
 5388PW      WM21100   8.925   9.089   0.069 -0.1011 -0.2511 -0.2473
 5389PW       W21101  11.850   7.732   0.648 -0.1503 -0.3529 -0.7233
 5389PW      WP21102  11.968   7.708   0.576  0.2644 -0.0058 -0.2032
 5389PW      WM21103  11.876   7.624   0.735 -0.0434  0.1548 -0.0877
 5390PW       W21104   4.971   6.896  10.548 -0.3195 -0.5561 -0.1613
 5390PW      WP21105   5.035   6.785  10.605 -0.2323 -0.7298 -0.5758
 5390PW      WM21106   4.966   6.834  10.673 -0.6081 -0.0162  0.1113
 5391PW       W21107   2.554   0.111   9.579 -0.1386 -0.3161  0.0710
 5391PW      WP21108   2.579   0.130   9.715 -0.1694 -0.2182  0.0627
 5391PW      WM21109   2.654   0.106   9.480 -0.0377  0.3674  0.1171
 5392PW       W21110  11.819   2.057  10.611  0.1849 -0.3896 -0.0825
 5392PW      WP21111  11.760   2.145  10.703 -0.3007 -0.5337 -0.2394
 5392PW      WM21112  11.956   2.042  10.634  0.3144 -0.1284 -0.6037
 5393PW       W21113   8.678   0.409  12.859 -0.2655 -0.3756 -0.1299
 5393PW      WP21114   8.713   0.279  12.820  0.3065 -0.1787 -0.3281
 5393PW      WM21115   8.646   0.545  12.854  0.1645 -0.2626 -0.0583
 5394PW       W21116   3.601   9.145  10.523 -0.3020  0.6450 -0.2193
 5394PW      WP21117   3.545   9.033  10.460  0.1514  0.1148  0.2647
 5394PW      WM21118   3.598   9.127  10.384  0.4709  0.0995 -0.1941
 5395PW       W21119   2.162   1.148   1.514 -0.2027  0.0307 -0.2547
 5395PW      WP21120   2.272   1.061   1.506  0.2424  0.5406  0.0082
 5395PW      WM21121   2.218   1.272   1.483 -0.2516  0.2255  0.3721
 5396PW       W21122   7.040   8.634   1.397  0.1579 -0.4730 -0.1268
 5396PW      WP21123   6.948   8.610   1.295 -0.0471 -0.1947 -0.0127
 5396PW      WM21124   7.118   8.613   1.282  0.4454  0.0290 -0.0406
 5397PW       W21125   8.376   1.007   0.304  0.2213 -0.1925  0.6526
 5397PW      WP21126   8.246   1.050   0.329  0.0926 -0.3316  0.2649
 5397PW      WM21127   8.438   0.974   0.425  0.4492 -0.2926  0.5132
 5398PW       W21128   8.920   1.155   9.773 -0.3408  0.0232  0.3222
 5398PW      WP21129   8.833   1.260   9.805 -0.6909 -0.3078  0.5035
 5398PW      WM21130   8.961   1.108   9.898  0.2360 -0.2034  0.0680
 5399PW       W21131  11.183   8.387   4.184 -0.2361 -0.1113  0.2377
 5399PW      WP21132  11.301   8.402   4.111 -0.0775 -0.7572  0.3359
 5399PW      WM21133  11.292   8.346   4.261 -0.1350 -0.5053 -0.0983
 5400PW       W21134   5.477   7.089   2.207  0.1310 -0.1435  0.0114
 5400PW      WP21135   5.420   6.963   2.183 -0.1274  0.0212 -0.2665
 5400PW      WM21136   5.585   7.135   2.131 -0.1494  0.4131 -0.0762
 5401PW       W21137   1.044   8.962   0.078 -0.4310 -0.0569  0.3334
 5401PW      WP21138   0.975   8.997  -0.039 -0.1055 -0.1600  0.1061
 5401PW      WM21139   1.129   9.052   0.143  0.0810 -0.2547 -0.0311
 5402PW       W21140   7.587   6.489   3.321 -0.0668  0.1700 -0.1357
 5402PW      WP21141   7.484   6.414   3.263 -0.1492  0.1335  0.0514
 5402PW      WM21142   7.703   6.430   3.270 -0.3093 -0.4101 -0.0499
 5403PW       W21143   1.874   3.819   9.920  0.4894 -0.1759 -0.3626
 5403PW      WP21144   1.766   3.730   9.913  0.3139 -0.0185  0.1181
 5403PW      WM21145   1.831   3.905  10.023  0.3430 -0.6052 -0.0502
 5404PW       W21146   8.825   0.351   2.271  0.0719  0.1172 -0.2435
 5404PW      WP21147   8.699   0.367   2.329  0.0437 -0.1924 -0.2096
 5404PW      WM21148   8.891   0.468   2.310 -0.1434  0.2456 -0.2604
 5405PW       W21149   7.177   6.851   2.828  0.0716  0.0777 -0.1475
 5405PW      WP21150   7.306   6.815   2.868  0.2679  0.4424 -0.4263
 5405PW      WM21151   7.044   6.823   2.792 -0.0838  0.2253  0.2820
 5406PW       W21152   8.647   4.349  11.300  0.0881 -0.2523  0.0573
 5406PW      WP21153   8.575   4.427  11.208  0.0128 -0.0469  0.2841
 5406PW      WM21154   8.653   4.300  11.170  0.4929  0.1534 -0.0910
 5407PW       W21155  11.354   9.464   2.480  0.1706 -0.5661 -0.1485
 5407PW      WP21156  11.299   9.443   2.354 -0.5276  0.1420 -0.0033
 5407PW      WM21157  11.479   9.527   2.474  0.2570 -0.6786  0.2642
 5408PW       W21158   8.249   8.956   1.464 -0.0730 -0.5697  0.0485
 5408PW      WP21159   8.388   8.964   1.466 -0.0977  0.2681  0.5159
 5408PW      WM21160   8.172   8.939   1.348 -0.1001 -0.4246  0.0453
 5409PW       W21161   1.280   3.758  10.198 -0.2658 -0.0736 -0.2812
 5409PW      WP21162   1.213   3.656  10.128 -0.1507 -0.2283 -0.1677
 5409PW      WM21163   1.405   3.697  10.200 -0.2013  0.0500  0.3509
 5410PW       W21164   5.686   6.902  10.132  0.1612  0.1003  0.7445
 5410PW      WP21165   5.797   6.904  10.047 -0.2749 -0.5681  0.0984
 5410PW      WM21166   5.549   6.912  10.104  0.2620  0.0925  0.2121
 5411PW       W21167   5.396   2.678  10.919 -0.2714 -0.5028 -0.3415
 5411PW      WP21168   5.318   2.781  10.973  0.2122 -0.3331  0.0721
 5411PW      WM21169   5.456   2.663  10.793  0.6613 -0.1211  0.0138
 5412PW       W21170   8.417   5.822   1.712  0.1101  0.4089 -0.2208
 5412PW      WP21171   8.343   5.804   1.595 -0.0729 -0.1068 -0.0417
 5412PW      WM21172   8.459   5.941   1.650 -0.0599  0.4165 -0.3241
 5413PW       W21173   6.416   6.662   8.952 -0.0961  0.1026 -0.1770
 5413PW      WP21174   6.503   6.771   8.945 -0.0964  0.1099 -0.0652
 5413PW      WM21175   6.382   6.543   8.886  0.0618 -0.0548  0.0200
 5414PW       W21176   5.306   8.690   4.632 -0.0075  0.3591 -0.0258
 5414PW      WP21177   5.188   8.620   4.603  0.3728 -0.3765  0.0906
 5414PW      WM21178   5.225   8.802   4.653  0.3020  0.4538  0.8992
 5415PW       W21179   0.550   4.849  10.424  0.5658  0.1092  0.0138
 5415PW      WP21180   0.570   4.988  10.431  0.1239  0.1659  0.5038
 5415PW      WM21181   0.424   4.865  10.366  0.4054 -0.2959  0.2348
 5416PW       W21182   8.011   3.970   3.661  0.4640 -0.4261  0.1178
 5416PW      WP21183   8.090   3.937   3.551  0.3953 -0.2002 -0.0037
 5416PW      WM21184   7.942   3.987   3.782 -0.4964  0.2714 -0.4590
 5417PW       W21185  10.140   1.287  13.047 -0.0126  0.0572  0.1152
 5417PW      WP21186  10.026   1.227  12.993 -0.2472  0.4533  0.1513
 5417PW      WM21187  10.127   1.349  13.172 -0.0601 -0.1301  0.2047
 5418PW       W21188   4.189  10.485  12.563 -0.5196  0.4088 -0.3047
 5418PW      WP21189   4.248  10.372  12.505 -0.5503  0.2068  0.0442
 5418PW      WM21190   4.177  10.473  12.702  0.2482 -0.3615 -0.2638
 5419PW       W21191  10.046   6.324   4.310 -0.3163  0.0704 -0.3264
 5419PW      WP21192   9.986   6.260   4.420  0.3300 -0.1351 -0.0655
 5419PW      WM21193  10.115   6.296   4.192 -0.0127 -0.0336 -0.1291
 5420PW       W21194   9.384   9.478   4.249 -0.0126 -0.3716 -0.1936
 5420PW      WP21195   9.471   9.527   4.151 -0.4433  0.0196 -0.3984
 5420PW      WM21196   9.455   9.577   4.319 -0.2856 -0.0248 -0.3936
 5421PW       W21197   3.001   5.134   1.879  0.0316  0.1356 -0.0065
 5421PW      WP21198   2.958   5.020   1.948  0.0354  0.3236  0.3209
 5421PW      WM21199   3.026   5.222   1.986 -0.3878 -0.0934  0.2958
 5422PW       W21200   4.956  12.022  10.855  0.4001 -0.2955 -0.5980
 5422PW      WP21201   4.917  12.156  10.847  0.1507 -0.2589  0.4657
 5422PW      WM21202   4.833  11.957  10.864  0.1810  0.1618  0.4572
 5423PW       W21203  11.665  10.821   8.513  0.1621 -0.1212 -0.4832
 5423PW      WP21204  11.682  10.702   8.585 -0.4493  0.2317  0.3183
 5423PW      WM21205  11.632  10.919   8.607 -0.4785 -0.4377 -0.3478
 5424PW       W21206   8.549   3.765   3.154  0.1399 -0.1844 -0.0716
 5424PW      WP21207   8.526   3.731   3.288  0.6992 -0.3668 -0.0064
 5424PW      WM21208   8.458   3.858   3.103  0.0829 -0.2958 -0.1769
 5425PW       W21209   6.290   5.868   4.713  0.1345 -0.0208  0.1783
 5425PW      WP21210   6.253   5.887   4.846  0.4039  0.3322  0.2115
 5425PW      WM21211   6.407   5.903   4.644  0.1106 -0.0856  0.1039
 5426PW       W21212  11.194  11.634   3.716 -0.3077  0.0796 -0.0679
 5426PW      WP21213  11.280  11.712   3.637  0.2396 -0.0302  0.3871
 5426PW      WM21214  11.119  11.527   3.666 -0.0040 -0.0219 -0.3255
 5427PW       W21215  10.805   1.734   0.868  0.2663 -0.2142 -0.1477
 5427PW      WP21216  10.683   1.667   0.884  0.1747 -0.0211 -0.0128
 5427PW      WM21217  10.914   1.821   0.862  0.3601 -0.3262 -0.0925
 5428PW       W21218  11.581   3.256  11.993 -0.1223  0.1706  0.5178
 5428PW      WP21219  11.651   3.194  11.889 -0.7023  0.3694 -0.0283
 5428PW      WM21220  11.718   3.260  12.020 -0.0783 -0.0424  0.3398
 5429PW       W21221   6.116  11.475   5.543  0.2847 -0.1286 -0.0943
 5429PW      WP21222   6.133  11.367   5.456  0.2507  0.4674 -0.8990
 5429PW      WM21223   6.155  11.554   5.434  0.2273 -0.2724 -0.2210
 5430PW       W21224   5.222   2.099  13.192  0.1402  0.4058  0.0377
 5430PW      WP21225   5.325   2.021  13.136 -0.0513  0.0267  0.1929
 5430PW      WM21226   5.302   2.192  13.260  0.0115  0.2616  0.4023
 5431PW       W21227   1.986  11.846   8.911 -0.0838  0.3351 -0.1633
 5431PW      WP21228   2.067  11.898   9.012 -0.1763  0.6738 -0.2558
 5431PW      WM21229   2.101  11.880   8.840  0.1165  0.3150  0.1442
 5432PW       W21230  11.584   2.742  10.029 -0.0404 -0.0988 -0.1684
 5432PW      WP21231  11.605   2.684  10.154 -0.5231 -0.1088 -0.0807
 5432PW      WM21232  11.706   2.709   9.968  0.0774  0.2297 -0.1188
 5433PW       W21233   3.937   8.519   1.418  0.0828 -0.2050  0.3296
 5433PW      WP21234   3.864   8.453   1.318  0.1452 -0.0310  0.1663
 5433PW      WM21235   3.847   8.501   1.523  0.0678  0.3184  0.4200
 5434PW       W21236   3.287   3.147   9.911  0.0164 -0.2553  0.1230
 5434PW      WP21237   3.291   3.007   9.914  0.0695 -0.2517  0.2318
 5434PW      WM21238   3.161   3.141   9.973 -0.1427  0.0286 -0.1570
 5435PW       W21239   8.102   6.237   1.796  0.2197  0.0394  0.2387
 5435PW      WP21240   8.039   6.305   1.901 -0.1494  0.1273 -0.0292
 5435PW      WM21241   8.052   6.167   1.686  0.4228 -0.3458  0.3826
 5436PW       W21242   3.195   8.124   3.841 -0.4038 -0.3601 -0.2124
 5436PW      WP21243   3.123   8.210   3.757 -0.5653 -0.0602  0.2176
 5436PW      WM21244   3.323   8.095   3.890 -0.3093 -0.4278 -0.4895
 5437PW       W21245  11.648   3.210   3.638  0.0824 -0.0715  0.0563
 5437PW      WP21246  11.738   3.305   3.688 -0.2397  0.3758 -0.1713
 5437PW      WM21247  11.514   3.173   3.655  0.0070  0.2653  0.2337
 5438PW       W21248   6.277   1.491  12.654  0.0042 -0.2970 -0.6417
 5438PW      WP21249   6.144   1.459  12.622 -0.3556 -0.1014  0.4573
 5438PW      WM21250   6.354   1.587  12.720  0.0203 -0.8038  0.1445
 5439PW       W21251   3.461   9.013   3.932 -0.1472  0.2644  0.3583
 5439PW      WP21252   3.512   8.885   3.906 -0.1565  0.3121  0.0906
 5439PW      WM21253   3.377   8.976   3.826  0.3809 -0.6230  0.1947
 5440PW       W21254  10.962  10.940   0.922  0.5754 -0.1098 -0.0905
 5440PW      WP21255  11.006  10.966   1.053 -0.1091 -0.1629  0.1683
 5440PW      WM21256  10.909  10.856   0.824 -0.1869  0.0362  0.1612
 5441PW       W21257  10.405   2.490   4.557  0.6272 -0.3091 -0.3450
 5441PW      WP21258  10.454   2.611   4.608  0.0520 -0.3431  0.3537
 5441PW      WM21259  10.309   2.419   4.629  0.2325  0.0601 -0.4820
 5442PW       W21260   8.137   2.207  11.772 -0.5371  0.2512 -0.2254
 5442PW      WP21261   8.233   2.253  11.682 -0.2144 -0.2007 -0.1313
 5442PW      WM21262   8.111   2.081  11.716  0.2083 -0.0223 -0.0185
 5443PW       W21263   6.564   2.025  12.755 -0.3932  0.3905  0.4222
 5443PW      WP21264   6.588   2.132  12.842  0.0184  0.2812  0.4556
 5443PW      WM21265   6.439   2.075  12.717 -0.0322  0.6479 -0.5957
 5444PW       W21266   6.772   8.175  11.555 -0.2138  0.0250  0.1228
 5444PW      WP21267   6.733   8.246  11.669 -0.1954  0.2672 -0.0187
 5444PW      WM21268   6.735   8.040  11.549 -0.3997  0.0792 -0.0256
 5445PW       W21269   3.746   7.558  11.061  0.2646  0.1503 -0.1288
 5445PW      WP21270   3.739   7.522  10.926  0.3524  0.3351 -0.1828
 5445PW      WM21271   3.834   7.659  11.100 -0.1048  0.2344  0.5699
 5446PW       W21272  11.729   5.158  10.316  0.0745 -0.3465  0.3118
 5446PW      WP21273  11.670   5.068  10.225 -0.1067  0.2389 -0.1809
 5446PW      WM21274  11.602   5.185  10.263  0.3275 -0.2416 -0.2843
 5447PW       W21275   3.042   4.628   9.109  0.5965  0.3801 -0.0333
 5447PW      WP21276   2.956   4.734   9.077 -0.0493 -0.0663  0.1201
 5447PW      WM21277   3.065   4.722   9.210  0.2682 -0.1234  0.5434
 5448PW       W21278   1.476  10.562   5.293  0.1220 -0.0651 -0.0362
 5448PW      WP21279   1.342  10.523   5.302  0.0043  0.3469  0.0726
 5448PW      WM21280   1.581  10.476   5.256  0.0585 -0.1211 -0.0892
 5449PW       W21281   4.013  11.569   9.472  0.9995 -0.1294  0.2822
 5449PW      WP21282   3.969  11.628   9.591 -0.1164  0.2970 -0.2718
 5449PW      WM21283   3.987  11.444   9.415  0.0397  0.0468  0.2590
 5450PW       W21284   0.510   9.008   0.195  0.0416  0.1466  0.2229
 5450PW      WP21285   0.502   9.146   0.221  0.3059  0.2007  0.0427
 5450PW      WM21286   0.631   8.974   0.256 -0.1814 -0.2848  0.4433
 5451PW       W21287  11.424  10.887   5.431  0.2561  0.1504  0.3519
 5451PW      WP21288  11.508  10.988   5.479 -0.0759  0.2413  0.7783
 5451PW      WM21289  11.294  10.938   5.448 -0.0642 -0.2567 -0.5792
 5452PW       W21290   9.696   6.730   0.048  0.1212 -0.2176 -0.1073
 5452PW      WP21291   9.626   6.851   0.046  0.2338 -0.1520 -0.1493
 5452PW      WM21292   9.641   6.651   0.150 -0.2322 -0.3643 -0.4029
 5453PW       W21293   2.508  10.086   9.982 -0.0617 -0.1328  0.2562
 5453PW      WP21294   2.582  10.046   9.870  0.1903  0.0777  0.3430
 5453PW      WM21295   2.419   9.982   9.950 -0.1054  0.1503 -0.6863
 5454PW       W21296   1.054  11.683  11.696 -0.3091  0.1605 -0.3432
 5454PW      WP21297   1.072  11.782  11.599  0.1240  0.4221 -0.0210
 5454PW      WM21298   1.005  11.793  11.768 -0.2396  0.0723 -0.1555
 5455PW       W21299  10.394  11.995  13.044  0.0737 -0.1468 -0.3242
 5455PW      WP21300  10.408  12.018  12.906  0.0732 -0.5073 -0.3896
 5455PW      WM21301  10.474  11.881  13.030  0.3899 -0.0494  0.4786
 5456PW       W21302   6.376   3.544   0.871 -0.1220 -0.3064  0.0422
 5456PW      WP21303   6.295   3.568   0.759 -0.4964  0.0524  0.3764
 5456PW      WM21304   6.366   3.406   0.845 -0.1858 -0.3127  0.0976
 5457PW       W21305  10.268   3.798   8.727 -0.0377  0.2084  0.1131
 5457PW      WP21306  10.307   3.880   8.621 -0.1076  0.2342  0.1069
 5457PW      WM21307  10.186   3.818   8.839 -0.1482  0.1807  0.0376
 5458PW       W21308   3.359   8.891   2.672  0.2549  0.0197 -0.2050
 5458PW      WP21309   3.460   8.841   2.756 -0.3478 -0.4122  0.3174
 5458PW      WM21310   3.260   8.811   2.733  0.3014 -0.1158 -0.3047
 5459PW       W21311  11.217  11.065  12.724  0.1572 -0.0072 -0.1364
 5459PW      WP21312  11.339  11.000  12.699 -0.0844 -0.5436  0.0133
 5459PW      WM21313  11.279  11.186  12.757 -0.2637  0.3850 -0.6827
 5460PW       W21314   3.025   7.630  11.766  0.4424  0.3330  0.3834
 5460PW      WP21315   3.083   7.660  11.642  0.3111 -0.4120  0.1176
 5460PW      WM21316   2.963   7.578  11.652  0.1468  0.2417  0.5808
 5461PW       W21317   0.482  11.993  10.981  0.1403 -0.4323  0.1246
 5461PW      WP21318   0.618  11.974  10.954  0.1933 -0.2631  0.2615
 5461PW      WM21319   0.374  12.000  11.069 -0.0967 -0.4293 -0.1609
 5462PW       W21320   0.451  10.326  11.422  0.4784 -0.1849  0.0727
 5462PW      WP21321   0.532  10.355  11.312  0.0879  0.0945 -0.1527
 5462PW      WM21322   0.405  10.198  11.389 -0.2527  0.1310 -0.2321
 5463PW       W21323   0.044   0.418  10.350  0.1738  0.2443  0.0312
 5463PW      WP21324   0.099   0.372  10.470  0.4260  0.0169 -0.1625
 5463PW      WM21325   0.006   0.295  10.293  0.0848  0.0995  0.3929
 5464PW       W21326   9.145   0.004   8.814 -0.1064  0.3678 -0.0514
 5464PW      WP21327   9.108  -0.085   8.916  0.3661  0.2409  0.0213
 5464PW      WM21328   9.211   0.108   8.882  0.2797 -0.0837  0.2983
 5465PW       W21329   4.192  10.698  10.503 -0.0922  0.0444  0.3440
 5465PW      WP21330   4.289  10.799  10.498  0.0530 -0.0665  0.7327
 5465PW      WM21331   4.251  10.600  10.422 -0.6627  0.1615 -0.2612
 5466PW       W21332   5.850   8.009   8.190 -0.1792  0.2377  0.2850
 5466PW      WP21333   5.757   7.939   8.268  0.2530 -0.3389  0.3156
 5466PW      WM21334   5.921   7.992   8.309 -0.3886  0.0984  0.3922
 5467PW       W21335   2.044   7.082   2.482 -0.1947  0.2650 -0.0903
 5467PW      WP21336   2.180   7.105   2.459 -0.1119 -0.3258 -0.2599
 5467PW      WM21337   1.943   7.092   2.385 -0.1584  0.1649 -0.1387
 5468PW       W21338   5.277   4.134   4.084 -0.3019 -0.1832  0.5326
 5468PW      WP21339   5.259   4.269   4.118  0.0500  0.0040  0.0380
 5468PW      WM21340   5.185   4.046   4.027  0.1355 -0.2684 -0.1001
 5469PW       W21341  11.320   3.969  11.057 -0.1438 -0.3554  0.3536
 5469PW      WP21342  11.393   4.055  11.140 -0.2349  0.2329 -0.1377
 5469PW      WM21343  11.189   3.971  11.107 -0.1585 -0.0372  0.3111
 5470PW       W21344   3.067   4.389   3.106 -0.0470  0.1101  0.1641
 5470PW      WP21345   3.073   4.297   3.000 -0.5035 -0.1217  0.3290
 5470PW      WM21346   2.990   4.497   3.149 -0.2831  0.1383 -0.2936
 5471PW       W21347  11.083   0.054   4.266  0.2039  0.1570 -0.2057
 5471PW      WP21348  11.214   0.094   4.298  0.1940  0.2417 -0.2680
 5471PW      WM21349  11.028   0.097   4.387  0.1870 -0.1229 -0.1099
 5472PW       W21350   0.862   7.276  11.631 -0.8386  0.0283  0.0408
 5472PW      WP21351   0.879   7.409  11.590 -0.1178 -0.0401  0.0465
 5472PW      WM21352   0.883   7.137  11.632  0.2499  0.1463  0.0540
 5473PW       W21353   2.427   4.546   5.297  0.2153  0.1639 -0.1187
 5473PW      WP21354   2.305   4.568   5.232  0.2223  0.1134 -0.1494
 5473PW      WM21355   2.564   4.523   5.307  0.2141  0.2472  0.1220
 5474PW       W21356   6.340   1.409  11.996  0.2413  0.1980 -0.0058
 5474PW      WP21357   6.212   1.436  12.045 -0.0273 -0.6303 -0.1769
 5474PW      WM21358   6.271   1.303  12.055  0.1551  0.1070 -0.2684
 5475PW       W21359   0.771   8.362  10.745 -0.1265 -0.0729 -0.1065
 5475PW      WP21360   0.882   8.342  10.662 -0.0104  0.1916 -0.0219
 5475PW      WM21361   0.801   8.248  10.819  0.1536  0.0136 -0.0819
 5476PW       W21362   5.997  11.585  12.396 -0.0686 -0.1134  0.4348
 5476PW      WP21363   5.895  11.515  12.329 -0.0502 -0.0393  0.3290
 5476PW      WM21364   6.046  11.525  12.513  0.3541  0.1307  0.3911
 5477PW       W21365   3.681   5.181  13.279 -0.0317 -0.1340 -0.0041
 5477PW      WP21366   3.564   5.155  13.352 -0.0779  0.5908  0.2210
 5477PW      WM21367   3.639   5.100  13.173 -0.0984 -0.1069  0.0012
 5478PW       W21368  10.040   9.058   1.321  0.0603 -0.0334 -0.1234
 5478PW      WP21369  10.096   8.989   1.213 -0.0921  0.4318 -0.5178
 5478PW      WM21370  10.043   8.995   1.446  0.2001  0.1149 -0.0498
 5479PW       W21371   5.695   1.749   5.366 -0.0105 -0.3031  0.2371
 5479PW      WP21372   5.612   1.839   5.298  0.2734  0.0487  0.3465
 5479PW      WM21373   5.587   1.671   5.409  0.0384 -0.0484  0.8688
 5480PW       W21374   1.205   2.610   3.824  0.2090 -0.2523  0.0252
 5480PW      WP21375   1.065   2.613   3.809  0.1466 -0.1581  0.5260
 5480PW      WM21376   1.269   2.643   3.944 -0.0893 -0.3606  0.2217
 5481PW       W21377   4.485   6.414  12.355 -0.2966  0.3304  0.2769
 5481PW      WP21378   4.603   6.474  12.400  0.0604 -0.1964  0.0823
 5481PW      WM21379   4.437   6.464  12.234  0.0352  0.8208  0.3356
 5482PW       W21380   6.163   1.842   9.184 -0.2791 -0.1567  0.0160
 5482PW      WP21381   6.255   1.764   9.255 -0.1464 -0.0058  0.0130
 5482PW      WM21382   6.179   1.738   9.092  0.3237  0.0763 -0.1616
 5483PW       W21383   0.644   0.845  11.766 -0.0049  0.1794  0.1465
 5483PW      WP21384   0.517   0.825  11.822  0.3030  0.1044  0.8774
 5483PW      WM21385   0.664   0.958  11.686  0.4683 -0.2940 -0.4518
 5484PW       W21386   4.969  11.012  10.933  0.4390 -0.2307  0.0007
 5484PW      WP21387   4.947  11.034  11.070 -0.2676  0.2055 -0.1602
 5484PW      WM21388   4.926  11.145  10.943  0.4688 -0.1879 -0.3751
 5485PW       W21389   7.344   9.723   2.991 -0.0342  0.1584  0.1868
 5485PW      WP21390   7.235   9.810   2.980  0.0128  0.1725 -0.3022
 5485PW      WM21391   7.450   9.793   3.049  0.2564  0.1632 -0.3220
 5486PW       W21392  10.716  10.859   0.187  0.0287 -0.1883  0.2626
 5486PW      WP21393  10.672  10.790   0.073  0.4680  0.4027 -0.3003
 5486PW      WM21394  10.586  10.837   0.234  0.0789 -0.4965  0.2704
 5487PW       W21395   8.299   8.279   9.066  0.2741 -0.0115 -0.2041
 5487PW      WP21396   8.283   8.408   9.119  0.3868 -0.0378 -0.1032
 5487PW      WM21397   8.365   8.278   9.189 -0.5457 -0.6363  0.2876
 5488PW       W21398  11.534   4.628   4.120  0.3751 -0.6215  0.0462
 5488PW      WP21399  11.525   4.648   3.981  0.8289 -0.1994  0.0616
 5488PW      WM21400  11.635   4.642   4.215  0.1196  0.5640  0.2273
 5489PW       W21401   8.627   8.777   5.051 -0.2032  0.2444 -0.1609
 5489PW      WP21402   8.676   8.743   4.924 -0.1457 -0.2780 -0.0097
 5489PW      WM21403   8.583   8.657   5.109  0.0816 -0.2122 -0.8249
 5490PW       W21404  10.243   6.406   1.212 -0.1164 -0.3687 -0.1859
 5490PW      WP21405  10.231   6.480   1.330 -0.0298  0.4256 -0.6344
 5490PW      WM21406  10.214   6.503   1.115 -0.0794 -0.4462 -0.2759
 5491PW       W21407   9.169   6.542   3.080 -0.0913  0.2263 -0.0260
 5491PW      WP21408   9.119   6.482   3.196  0.0446 -0.0431 -0.1020
 5491PW      WM21409   9.122   6.561   2.950 -0.0090 -0.3894 -0.1609
 5492PW       W21410   6.953   7.242   5.368  0.0847 -0.1627  0.2368
 5492PW      WP21411   6.839   7.161   5.376  0.0015 -0.1144 -0.3085
 5492PW      WM21412   7.016   7.152   5.282  0.1069 -0.0632  0.1487
 5493PW       W21413   4.548   7.939   4.077 -0.1597 -0.3138 -0.0223
 5493PW      WP21414   4.520   8.076   4.092  0.4182 -0.1662 -0.1782
 5493PW      WM21415   4.449   7.878   4.155  0.1016 -0.7071  0.0183
 5494PW       W21416   3.209   3.949  12.046  0.0039  0.0122 -0.4858
 5494PW      WP21417   3.227   4.085  12.015 -0.5638  0.1946 -0.1029
 5494PW      WM21418   3.189   4.011  12.170  0.1123 -0.2285 -0.3453
 5495PW       W21419   2.481   3.829   2.299  0.0128 -0.0770 -0.0644
 5495PW      WP21420   2.552   3.824   2.178  0.3292 -0.4687  0.1238
 5495PW      WM21421   2.481   3.934   2.207 -0.0031  0.1798  0.2229
 5496PW       W21422  11.198  10.606  11.341  0.1792  0.1835  0.4288
 5496PW      WP21423  11.255  10.489  11.291 -0.4608  0.0540 -0.0556
 5496PW      WM21424  11.317  10.669  11.302  0.0977 -0.0523 -0.2738
 5497PW       W21425   1.988   0.183   1.889 -0.2797  0.0347 -0.3204
 5497PW      WP21426   1.901   0.270   1.955 -0.3898 -0.2787 -0.0395
 5497PW      WM21427   2.037   0.148   1.763 -0.0263 -0.4103 -0.1116
 5498PW       W21428   3.467   9.825   0.825  0.2556 -0.3238  0.3320
 5498PW      WP21429   3.398   9.790   0.942 -0.2889 -0.0827  0.1013
 5498PW      WM21430   3.396   9.711   0.785  0.3325 -0.2281 -0.1029
 5499PW       W21431   2.624   2.329  12.681  0.0147  0.2083 -0.1152
 5499PW      WP21432   2.656   2.389  12.804 -0.4603  0.5190 -0.1312
 5499PW      WM21433   2.522   2.292  12.593  0.1722 -0.0132 -0.2111
 5500PW       W21434  11.760   0.562  12.836 -0.2626  0.1872  0.0812
 5500PW      WP21435  11.889   0.606  12.867 -0.2167  0.1317 -0.0277
 5500PW      WM21436  11.809   0.649  12.738 -0.2068  0.3066  0.2140
 5501PW       W21437   0.741   5.640  10.891 -0.0081  0.7753  0.0089
 5501PW      WP21438   0.861   5.660  10.961 -0.0510  0.7233  0.0966
 5501PW      WM21439   0.624   5.699  10.840 -0.3947 -0.0446 -0.1251
 5502PW       W21440   9.547   2.823  10.685  0.1702  0.3671  0.0275
 5502PW      WP21441   9.571   2.690  10.720  0.0631  0.2796 -0.2173
 5502PW      WM21442   9.571   2.922  10.781 -0.3794  0.2613  0.2914
 5503PW       W21443  11.583  10.313  13.209  0.2017 -0.1093 -0.3201
 5503PW      WP21444  11.561  10.444  13.166  0.6034  0.0835  0.0259
 5503PW      WM21445  11.675  10.359  13.304 -0.2007  0.2170 -0.0762
 5504PW       W21446  11.431   3.180   0.550  0.2278  0.2629 -0.0664
 5504PW      WP21447  11.548   3.161   0.624  0.2879 -0.1149 -0.2462
 5504PW      WM21448  11.431   3.041   0.532  0.4697  0.2435  0.0586
 5505PW       W21449   7.885   6.976   0.149 -0.0323  0.4191  0.5768
 5505PW      WP21450   7.792   6.872   0.164  0.2930  0.1660  0.9453
 5505PW      WM21451   7.893   7.061   0.038 -0.3406 -0.2645 -0.0111
 5506PW       W21452   2.739   8.452   1.678  0.4516 -0.0984  0.0217
 5506PW      WP21453   2.649   8.533   1.750  0.3956 -0.5605  0.5040
 5506PW      WM21454   2.847   8.473   1.592  0.1857  0.2400 -0.2453
 5507PW       W21455   1.993   0.837  10.605  0.5958 -0.0454  0.3045
 5507PW      WP21456   2.004   0.722  10.684  0.0374 -0.1724  0.2245
 5507PW      WM21457   1.954   0.898  10.485  0.3609 -0.0779  0.3618
 5508PW       W21458   5.618  11.026   4.842 -0.2338 -0.3636  0.3633
 5508PW      WP21459   5.631  11.099   4.960 -0.4870  0.3807 -0.0370
 5508PW      WM21460   5.486  11.016   4.797 -0.2822  0.0185  0.4067
 5509PW       W21461  11.730   0.119   2.297 -0.2668  0.1510  0.1634
 5509PW      WP21462  11.784  -0.007   2.326 -0.1923  0.1978  0.2294
 5509PW      WM21463  11.620   0.032   2.306 -0.0762 -0.0929  0.1709
 5510PW       W21464  11.310  11.086   0.009 -0.0677  0.0777  0.0228
 5510PW      WP21465  11.367  11.097   0.137 -0.0069 -0.1647  0.0188
 5510PW      WM21466  11.308  10.953  -0.034  0.3438 -0.0066  0.2296
 5511PW       W21467   3.958   3.703   0.284 -0.1450 -0.3058  0.4087
 5511PW      WP21468   3.930   3.838   0.310  0.1637 -0.1687  0.0722
 5511PW      WM21469   3.953   3.582   0.355 -0.0214 -0.3648  0.3177
 5512PW       W21470  10.338   2.557  11.943 -0.0615 -0.2760  0.4321
 5512PW      WP21471  10.361   2.419  11.935 -0.2615 -0.2866 -0.2304
 5512PW      WM21472  10.365   2.629  12.060 -0.0950  0.0830  0.2239
 5513PW       W21473   4.737  10.160   4.785 -0.0316  0.0269 -0.1777
 5513PW      WP21474   4.621  10.201   4.853 -0.4306 -0.5275 -0.4786
 5513PW      WM21475   4.764  10.163   4.922 -0.2059  0.0896 -0.1430
 5514PW       W21476   3.266   4.600   0.731  0.3664  0.1334 -0.1513
 5514PW      WP21477   3.192   4.605   0.612 -0.0801  0.2217  0.1161
 5514PW      WM21478   3.388   4.558   0.676  0.4404  0.1809 -0.0248
 5515PW       W21479   3.658   7.944   0.014  0.0401  0.0099  0.2379
 5515PW      WP21480   3.538   8.004   0.052 -0.0689 -0.1169  0.1041
 5515PW      WM21481   3.784   7.948  -0.046 -0.3543 -0.0703 -0.6817
 5516PW       W21482   9.520   9.764   0.433  0.2260 -0.0171  0.0095
 5516PW      WP21483   9.640   9.830   0.405  0.1661  0.3033  0.4595
 5516PW      WM21484   9.393   9.708   0.414 -0.0467  0.5121  0.1693
 5517PW       W21485  11.838   9.936   3.908 -0.1895 -0.1068 -0.0271
 5517PW      WP21486  11.854   9.839   4.008 -0.6703 -0.0562  0.1115
 5517PW      WM21487  11.856  10.073   3.930  0.3670 -0.1875  0.1048
 5518PW       W21488   3.731   8.756  13.311 -0.1301 -0.2999  0.1506
 5518PW      WP21489   3.812   8.725  13.421 -0.0692 -0.6454  0.0150
 5518PW      WM21490   3.625   8.784  13.224 -0.2145  0.5445  0.4777
 5519PW       W21491  10.202   5.407   3.114  0.8124 -0.1027 -0.1499
 5519PW      WP21492  10.223   5.436   3.249 -0.0741 -0.9834  0.2315
 5519PW      WM21493  10.251   5.496   3.018 -0.0146  0.3354 -0.2134
 5520PW       W21494   3.624   2.541   3.801  0.1042  0.2223  0.1302
 5520PW      WP21495   3.747   2.475   3.813 -0.0299 -0.1268 -0.2664
 5520PW      WM21496   3.651   2.641   3.895  0.5290  0.1265  0.1193
 5521PW       W21497   7.736   7.560  13.043 -0.5014  0.3687  0.0206
 5521PW      WP21498   7.714   7.544  13.180  0.2874  0.0108  0.1330
 5521PW      WM21499   7.737   7.517  12.909 -0.8395  0.0136  0.1232
 5522PW       W21500  11.821  11.630   9.963  0.4133 -0.0004  0.2616
 5522PW      WP21501  11.708  11.670   9.889  0.5321  0.1849  0.1740
 5522PW      WM21502  11.882  11.511   9.921 -0.2577 -0.3233  0.1396
 5523PW       W21503  11.928   5.337   1.269  0.0862  0.4270  0.1820
 5523PW      WP21504  11.911   5.402   1.147 -0.3797  0.3415  0.1923
 5523PW      WM21505  12.061   5.362   1.233  0.2002 -0.0752  0.2173
 5524PW       W21506   1.858   4.179   9.578 -0.3435  0.0213 -0.0710
 5524PW      WP21507   1.804   4.288   9.510 -0.5113 -0.1701 -0.2517
 5524PW      WM21508   1.843   4.081   9.478 -0.3900  0.4133 -0.4653
 5525PW       W21509   4.733   3.647  10.038 -0.3109 -0.0498  0.4412
 5525PW      WP21510   4.788   3.565   9.938 -0.7220 -0.0179  0.1765
 5525PW      WM21511   4.614   3.720  10.041 -0.1496  0.2507  0.0416
 5526PW       W21512   3.087   1.768   2.294 -0.0548 -0.2823  0.7148
 5526PW      WP21513   3.212   1.830   2.304 -0.0669 -0.0304 -0.2551
 5526PW      WM21514   3.067   1.636   2.252 -0.5935  0.0271 -0.1146
 5527PW       W21515   7.853   1.723   4.173 -0.1480  0.1981 -0.1533
 5527PW      WP21516   7.753   1.640   4.120  0.1596 -0.2383 -0.0848
 5527PW      WM21517   7.918   1.679   4.289 -0.2747 -0.0585 -0.1751
 5528PW       W21518   2.858   8.000  12.966  0.6304  0.2420 -0.2805
 5528PW      WP21519   2.807   8.096  13.054  0.2213 -0.3997  0.2252
 5528PW      WM21520   2.767   7.959  12.867  0.1519 -0.1615  0.2860
 5529PW       W21521   4.068   9.419  10.817  0.0554 -0.3656 -0.3803
 5529PW      WP21522   4.091   9.485  10.696  0.3907  0.1657 -0.0510
 5529PW      WM21523   4.156   9.310  10.813  0.2990 -0.2298  0.3720
 5530PW       W21524   6.800   5.680   3.941 -0.1347  0.4339 -0.1737
 5530PW      WP21525   6.752   5.568   3.874 -0.1837  0.3772 -0.0455
 5530PW      WM21526   6.935   5.696   3.974 -0.2161  0.1092  0.3686
 5531PW       W21527   6.885  10.522   4.260 -0.1320 -0.0618 -0.0474
 5531PW      WP21528   6.933  10.576   4.380  0.1954  0.2286 -0.2988
 5531PW      WM21529   6.998  10.530   4.178 -0.4345 -0.5041 -0.5430
 5532PW       W21530   0.161   6.270  10.271 -0.3199  0.1503 -0.0156
 5532PW      WP21531   0.055   6.200  10.212 -0.2659  0.1167 -0.0745
 5532PW      WM21532   0.154   6.408  10.252  0.3509  0.1906 -0.0971
 5533PW       W21533   3.280   2.692   9.566  0.2857 -0.1513 -0.3912
 5533PW      WP21534   3.383   2.655   9.653  0.2862  0.6525  0.0035
 5533PW      WM21535   3.220   2.572   9.526  0.2424 -0.1728 -0.2639
 5534PW       W21536   8.005  10.396   3.742  0.0778 -0.1500 -0.5467
 5534PW      WP21537   8.087  10.282   3.733  0.2663 -0.0316 -0.3813
 5534PW      WM21538   8.056  10.523   3.772 -0.1345 -0.0639 -0.5442
 5535PW       W21539   4.110   3.497  12.671 -0.1088 -0.3886  0.0026
 5535PW      WP21540   4.232   3.558  12.701 -0.3607 -0.0068  0.3169
 5535PW      WM21541   4.114   3.467  12.535  0.3169 -0.2196 -0.0271
 5536PW       W21542   4.050  10.316   2.522 -0.0657  0.0180 -0.2845
 5536PW      WP21543   4.177  10.258   2.527 -0.0958 -0.0351 -0.0530
 5536PW      WM21544   4.096  10.438   2.471  0.1857 -0.2101 -0.6197
 5537PW       W21545  10.819   4.237   2.856  0.0150  0.3080 -0.0945
 5537PW      WP21546  10.951   4.243   2.810  0.1323  0.2184  0.2144
 5537PW      WM21547  10.729   4.342   2.834  0.0161  0.2135 -0.6108
 5538PW       W21548   4.892   6.778   9.633 -0.1394  0.0974  0.0684
 5538PW      WP21549   4.804   6.670   9.652 -0.0595  0.0380  0.1072
 5538PW      WM21550   4.861   6.803   9.499 -0.0985  0.3410  0.1020
 5539PW       W21551   0.077   9.415   8.808  0.1797  0.5435  0.2351
 5539PW      WP21552  -0.063   9.426   8.807  0.1473  0.2070  0.3145
 5539PW      WM21553   0.179   9.374   8.894 -0.2238 -0.1404  0.4290
 5540PW       W21554   2.740   6.898   0.824  0.3823 -0.4029 -0.4042
 5540PW      WP21555   2.726   6.860   0.690 -0.4564  0.0355 -0.4739
 5540PW      WM21556   2.754   6.762   0.852 -0.2761 -0.3390  0.4168
 5541PW       W21557   0.310  11.350  10.508  0.3665  0.2054  0.2470
 5541PW      WP21558   0.249  11.474  10.532 -0.0279  0.0390  0.1476
 5541PW      WM21559   0.240  11.318  10.626 -0.3247 -0.2682 -0.2533
 5542PW       W21560  10.327   0.616   9.426  0.0829 -0.3319 -0.2222
 5542PW      WP21561  10.354   0.479   9.418 -0.3038 -0.4279 -0.0059
 5542PW      WM21562  10.377   0.627   9.296 -0.3158  0.5517 -0.3358
 5543PW       W21563  10.992   0.175   0.906 -0.1336  0.1828 -0.2500
 5543PW      WP21564  10.939   0.047   0.885 -0.0966  0.1693 -0.2622
 5543PW      WM21565  11.041   0.235   1.022 -0.6781 -0.0343  0.1093
 5544PW       W21566   7.461  10.758  10.660 -0.1197 -0.2814  0.2029
 5544PW      WP21567   7.450  10.626  10.615  0.0106 -0.0292 -0.6608
 5544PW      WM21568   7.322  10.747  10.649 -0.1099 -0.0161 -0.3986
 5545PW       W21569   2.604   3.327   2.440  0.1446  0.4509 -0.4710
 5545PW      WP21570   2.473   3.324   2.491  0.2623  0.1387 -0.1747
 5545PW      WM21571   2.732   3.331   2.496  0.0127  0.0495 -0.1145
 5546PW       W21572  11.177   1.176   0.056  0.0655 -0.1998  0.2360
 5546PW      WP21573  11.277   1.264   0.099 -0.1502  0.0632  0.2109
 5546PW      WM21574  11.261   1.065   0.049  0.0528 -0.1971 -0.0253
 5547PW       W21575   8.122   1.842   1.942  0.1217 -0.2731  0.0942
 5547PW      WP21576   8.024   1.862   2.040 -0.2384 -0.2354 -0.2593
 5547PW      WM21577   8.069   1.944   1.862 -0.1551 -0.1390  0.4370
 5548PW       W21578   4.397   4.297   2.174  0.1678  0.1621 -0.0886
 5548PW      WP21579   4.293   4.213   2.134  0.0400  0.0612  0.4223
 5548PW      WM21580   4.496   4.214   2.227 -0.1034 -0.2817 -0.2462
 5549PW       W21581   4.403   2.331   9.963  0.0168 -0.6133 -0.1248
 5549PW      WP21582   4.493   2.333  10.070 -0.2385 -0.2924  0.0921
 5549PW      WM21583   4.284   2.265   9.996 -0.2512 -0.1599 -0.1523
 5550PW       W21584   6.639   3.562   2.284 -0.1429  0.4198 -0.0843
 5550PW      WP21585   6.766   3.516   2.246 -0.5621 -0.5057 -0.5163
 5550PW      WM21586   6.640   3.530   2.420 -0.3763 -0.0793 -0.1887
 5551PW       W21587   4.826   0.071   0.779 -0.0212  0.1579 -0.3821
 5551PW      WP21588   4.831   0.062   0.640 -0.2839  0.2122 -0.3973
 5551PW      WM21589   4.909  -0.034   0.821 -0.2133  0.1108 -0.1060
 5552PW       W21590   5.384   3.782   3.600  0.3758  0.4988  0.2756
 5552PW      WP21591   5.249   3.763   3.565  0.3699  0.0509  0.5072
 5552PW      WM21592   5.455   3.662   3.610 -0.2665  0.0621 -0.0187
 5553PW       W21593   7.179   0.022   0.081  0.2912  0.2752  0.1848
 5553PW      WP21594   7.162   0.133   0.165 -0.0982  0.5334 -0.2138
 5553PW      WM21595   7.169   0.038  -0.058  0.2446  0.0705  0.1641
 5554PW       W21596   9.514   5.552   9.005 -0.0220 -0.5272  0.0460
 5554PW      WP21597   9.375   5.549   8.986 -0.0287 -0.1474 -0.0076
 5554PW      WM21598   9.593   5.641   8.930 -0.2364 -0.1966  0.1972
 5555PW       W21599   8.892   6.945   1.549  0.0213 -0.1726 -0.1138
 5555PW      WP21600   8.911   6.893   1.421  0.0760  0.1069 -0.2235
 5555PW      WM21601   8.792   6.948   1.452 -0.2281 -0.3507  0.1311
 5556PW       W21602   5.237   9.918   2.249  0.1175 -0.3132  0.1089
 5556PW      WP21603   5.245   9.824   2.353  0.3749 -0.2551  0.1454
 5556PW      WM21604   5.099   9.909   2.268  0.1363 -0.1467  0.3534
 5557PW       W21605   4.828   6.950   3.534  0.2973 -0.8125  0.0171
 5557PW      WP21606   4.843   7.072   3.467 -0.6826 -0.4778  0.3230
 5557PW      WM21607   4.816   6.973   3.671 -0.1809  0.1096 -0.1353
 5558PW       W21608   1.899   3.690   9.358 -0.3581 -0.1492 -0.5750
 5558PW      WP21609   2.011   3.773   9.367 -0.0925 -0.5081 -0.4584
 5558PW      WM21610   1.818   3.803   9.371  0.3841  0.3500  0.5119
 5559PW       W21611   7.110   2.622  10.882 -0.1855  0.1320 -0.0614
 5559PW      WP21612   7.247   2.653  10.883 -0.1975  0.1887  0.1798
 5559PW      WM21613   7.188   2.518  10.829  0.0456  0.4621 -0.3944
 5560PW       W21614   0.638  11.366   3.448  0.0458 -0.1546  0.1000
 5560PW      WP21615   0.763  11.428   3.448 -0.1475  0.2676 -0.3507
 5560PW      WM21616   0.560  11.480   3.429 -0.1194 -0.1187  0.8504
 5561PW       W21617   4.172   0.208   5.244  0.1726  0.1376  0.0733
 5561PW      WP21618   4.207   0.186   5.378 -0.3170  0.2019  0.2230
 5561PW      WM21619   4.038   0.212   5.288  0.1534  0.2906  0.0065
 5562PW       W21620   2.750   4.580   9.586  0.3265  0.3755 -0.2284
 5562PW      WP21621   2.865   4.503   9.564 -0.1623 -0.4540 -0.0902
 5562PW      WM21622   2.833   4.582   9.699 -0.5221 -0.5750  0.5097
 5563PW       W21623   6.889   6.271   4.014  0.0746 -0.5374 -0.0826
 5563PW      WP21624   6.758   6.235   4.048 -0.0935  0.1410  0.0776
 5563PW      WM21625   6.930   6.244   3.883 -0.1344 -0.2665 -0.2086
 5564PW       W21626   9.288   1.000  12.188  0.2341 -0.2269 -0.1338
 5564PW      WP21627   9.215   0.977  12.071 -0.0830 -0.0323  0.0201
 5564PW      WM21628   9.418   1.050  12.182  0.2271 -0.0944  0.4557
 5565PW       W21629   7.197   5.246   2.487 -0.2777  0.0753  0.2940
 5565PW      WP21630   7.282   5.170   2.406 -0.3620 -0.1269  0.3922
 5565PW      WM21631   7.217   5.221   2.623  0.1068  0.0137  0.2326
 5566PW       W21632   4.373   6.418   4.404 -0.1071 -0.0188  0.2936
 5566PW      WP21633   4.411   6.441   4.537  0.3813  0.1872  0.1295
 5566PW      WM21634   4.291   6.468   4.303  0.5180  0.5266  0.0161
 5567PW       W21635   4.441   6.087   0.605  0.6424  0.3102  0.3272
 5567PW      WP21636   4.328   6.169   0.610  0.2480 -0.2074  0.3477
 5567PW      WM21637   4.412   5.974   0.683  0.2299  0.4771  0.4249
 5568PW       W21638   8.152   7.867   2.915 -0.0600 -0.0661  0.1783
 5568PW      WP21639   8.231   7.923   3.017  0.4847 -0.3845 -0.0466
 5568PW      WM21640   8.104   7.744   2.962  0.2010 -0.2887 -0.1203
 5569PW       W21641   5.276   1.506   5.406 -0.0684 -0.2109  0.1413
 5569PW      WP21642   5.388   1.581   5.446 -0.2079  0.0988 -0.0334
 5569PW      WM21643   5.185   1.539   5.305 -0.3422 -0.3927  0.3241
 5570PW       W21644   5.192   0.908  12.007 -0.4975  0.3416 -0.5173
 5570PW      WP21645   5.285   0.894  11.903  0.3600 -0.0732  0.2355
 5570PW      WM21646   5.168   0.782  12.061  0.1549  0.2717 -0.3434
 5571PW       W21647   0.669   5.305   0.552  0.3049 -0.1893 -0.4850
 5571PW      WP21648   0.567   5.365   0.477 -0.1727 -0.7203 -0.2949
 5571PW      WM21649   0.667   5.195   0.638 -0.0912  0.3878  0.3067
 5572PW       W21650   1.374   7.773  10.639 -0.4823 -0.1548  0.3018
 5572PW      WP21651   1.271   7.749  10.547 -0.2082 -0.6283  0.1049
 5572PW      WM21652   1.462   7.827  10.733  0.2510 -0.3722 -0.2150
 5573PW       W21653   2.030   5.533   1.270  0.0003 -0.0855  0.1693
 5573PW      WP21654   2.037   5.663   1.320  0.0978  0.0027 -0.0626
 5573PW      WM21655   1.932   5.490   1.359  0.0640  0.0418  0.3030
 5574PW       W21656   4.412   8.129   5.403  0.0330  0.0871  0.0816
 5574PW      WP21657   4.316   8.027   5.410  0.3361 -0.2091  0.0437
 5574PW      WM21658   4.375   8.258   5.444  0.4762  0.2784 -0.0864
 5575PW       W21659   2.304   4.493   2.514 -0.0610 -0.3672 -0.1297
 5575PW      WP21660   2.211   4.463   2.614  0.1684 -0.3693  0.0856
 5575PW      WM21661   2.425   4.545   2.562 -0.3804  0.2105  0.0988
 5576PW       W21662  11.473   7.258   9.156 -0.1551 -0.0495 -0.2012
 5576PW      WP21663  11.499   7.124   9.123 -0.1533 -0.0611 -0.1535
 5576PW      WM21664  11.508   7.365   9.072 -0.2297  0.0303 -0.1310
 5577PW       W21665   9.176   8.541   9.415 -0.2528 -0.0960  0.0687
 5577PW      WP21666   9.132   8.644   9.331 -0.3141 -0.2095 -0.0403
 5577PW      WM21667   9.206   8.410   9.454 -0.4045 -0.1573 -0.0140
 5578PW       W21668   3.839  11.732   0.099  0.0284 -0.2782  0.5916
 5578PW      WP21669   3.756  11.785   0.199 -0.0323  0.3585  0.2336
 5578PW      WM21670   3.900  11.632   0.022 -0.1234  0.1138 -0.0750
 5579PW       W21671   9.842  10.470   9.046 -0.0069 -0.5628  0.1769
 5579PW      WP21672   9.796  10.532   8.929  0.4677  0.1701  0.3409
 5579PW      WM21673   9.884  10.589   9.107 -0.3704 -0.3341 -0.0022
 5580PW       W21674   6.780   8.919  13.358 -0.2951 -0.2224  0.0791
 5580PW      WP21675   6.765   9.014  13.257  0.2188 -0.3119 -0.0967
 5580PW      WM21676   6.887   8.835  13.392 -0.5404 -0.3920  0.4728
 5581PW       W21677   0.050   7.551  11.340  0.0299  0.0588 -0.0881
 5581PW      WP21678   0.166   7.599  11.403  0.0793  0.2178 -0.2933
 5581PW      WM21679  -0.056   7.640  11.317 -0.1758 -0.0729  0.3034
 5582PW       W21680   9.582   9.425   9.265 -0.3873  0.3675  0.1079
 5582PW      WP21681   9.484   9.394   9.360  0.0531  0.1448  0.5150
 5582PW      WM21682   9.501   9.321   9.220  0.1555  0.1742 -0.4934
 5583PW       W21683   9.028   7.039   3.711  0.0971  0.2728 -0.0913
 5583PW      WP21684   9.015   6.934   3.803 -0.0087  0.3982  0.0395
 5583PW      WM21685   9.144   7.010   3.638 -0.0099 -0.1817 -0.0903
 5584PW       W21686   7.115   5.287  11.374 -0.0262  0.2359  0.0603
 5584PW      WP21687   7.031   5.240  11.272 -0.0803  0.4862 -0.0136
 5584PW      WM21688   7.246   5.300  11.421  0.0079  0.1664 -0.0144
 5585PW       W21689   1.936   8.705   9.046  0.0949  0.2582 -0.0711
 5585PW      WP21690   2.066   8.655   9.036  0.1008  0.3233 -0.3674
 5585PW      WM21691   1.868   8.798   9.126 -0.2145 -0.1243  0.1339
 5586PW       W21692   4.146  11.083   2.637  0.0224 -0.4108  0.1614
 5586PW      WP21693   4.241  11.173   2.587 -0.1526 -0.4079 -0.1806
 5586PW      WM21694   4.009  11.103   2.615  0.1247  0.0566 -0.1135
 5587PW       W21695   3.707  10.940   0.384 -0.0390  0.0957 -0.6834
 5587PW      WP21696   3.675  10.807   0.354  0.0685 -0.2024  0.3366
 5587PW      WM21697   3.690  11.078   0.365 -0.1746  0.1564 -0.2082
 5588PW       W21698   7.940   7.058   1.526  0.0246  0.0944  0.3496
 5588PW      WP21699   7.926   7.179   1.457 -0.2608 -0.2437 -0.2284
 5588PW      WM21700   7.806   7.049   1.487  0.2238 -0.1529 -0.3567
 5589PW       W21701   2.154   4.376   3.370  0.4980  0.0282  0.1587
 5589PW      WP21702   2.252   4.294   3.313  0.0611  0.2201 -1.0091
 5589PW      WM21703   2.190   4.242   3.351  0.0845 -0.0384 -0.2334
 5590PW       W21704   7.199   1.181   1.210 -0.2515  0.3803  0.5819
 5590PW      WP21705   7.244   1.295   1.142 -0.2271 -0.0273 -0.1355
 5590PW      WM21706   7.225   1.044   1.197 -0.1281  0.4600 -0.4513
 5591PW       W21707   3.705   2.566  11.119 -0.2143  0.1593 -0.1286
 5591PW      WP21708   3.806   2.481  11.073 -0.1532  0.2780 -0.2170
 5591PW      WM21709   3.661   2.670  11.036 -0.1466 -0.1054 -0.5097
 5592PW       W21710   6.040   7.137   2.381  0.2040 -0.0289 -0.0988
 5592PW      WP21711   6.099   7.264   2.384  0.2416 -0.0469 -0.0712
 5592PW      WM21712   5.931   7.109   2.465 -0.0188 -0.1733 -0.4227
 5593PW       W21713   0.039   7.921  10.672 -0.0885  0.0382  0.3493
 5593PW      WP21714  -0.065   7.828  10.660  0.1110 -0.1840  0.3096
 5593PW      WM21715   0.099   8.046  10.691  0.4391 -0.1369 -0.0229
 5594PW       W21716  10.320   4.360  11.951 -0.2337  0.1543 -0.1294
 5594PW      WP21717  10.455   4.384  11.921 -0.1725 -0.2472 -0.1922
 5594PW      WM21718  10.393   4.360  12.072 -0.3087  0.1411 -0.0840
 5595PW       W21719   4.911   3.436   0.153 -0.1551  0.2012 -0.0784
 5595PW      WP21720   4.980   3.395   0.267 -0.7407  0.2682  0.3192
 5595PW      WM21721   5.012   3.442   0.056 -0.0973 -0.5646 -0.0907
 5596PW       W21722   7.337   7.448   9.644 -0.2940 -0.2116 -0.3716
 5596PW      WP21723   7.334   7.390   9.771  0.1096 -0.3722 -0.4260
 5596PW      WM21724   7.370   7.312   9.637  0.0200 -0.1424 -0.3132
 5597PW       W21725   1.155   9.927   3.190  0.0352 -0.1218  0.1952
 5597PW      WP21726   1.285   9.980   3.185  0.0314 -0.1256 -0.4291
 5597PW      WM21727   1.122  10.063   3.204  0.0146  0.0002 -0.6885
 5598PW       W21728  11.823   7.206   0.827 -0.2735  0.0771  0.1921
 5598PW      WP21729  11.809   7.335   0.881 -0.5682  0.1884 -0.1313
 5598PW      WM21730  11.822   7.165   0.693 -0.4124  0.1867  0.1584
 5599PW       W21731   1.038  11.105   1.662  0.1014 -0.1648 -0.1482
 5599PW      WP21732   1.095  11.010   1.748  0.2128 -0.3543 -0.4238
 5599PW      WM21733   1.062  11.243   1.648 -0.0082 -0.0448  0.6382
 5600PW       W21734   8.528   2.637   9.146  0.0985 -0.4440 -0.0436
 5600PW      WP21735   8.517   2.661   9.284  0.1273 -0.2007 -0.0810
 5600PW      WM21736   8.663   2.625   9.112  0.1079 -0.1552 -0.1227
 5601PW       W21737   9.064   4.941   4.266 -0.3524 -0.0856  0.1125
 5601PW      WP21738   9.120   4.847   4.354  0.3282  0.1492 -0.0339
 5601PW      WM21739   8.982   4.829   4.249 -0.5440  0.0424  0.1817
 5602PW       W21740   1.939   1.796   8.983  0.0766  0.0831  0.2848
 5602PW      WP21741   1.952   1.658   9.004 -0.4576  0.0224  0.2999
 5602PW      WM21742   2.042   1.828   8.894 -0.0952  0.2047  0.1247
 5603PW       W21743   4.253   5.222   8.367 -0.2212 -0.1425  0.2111
 5603PW      WP21744   4.181   5.330   8.420 -0.2388 -0.0164 -0.0634
 5603PW      WM21745   4.367   5.159   8.418  0.2478  0.1777 -0.3866
 5604PW       W21746  10.318   9.784  11.880 -0.2394  0.0916 -0.2286
 5604PW      WP21747  10.230   9.731  11.784 -0.5927  0.1745  0.0394
 5604PW      WM21748  10.346   9.891  11.794  0.1574  0.0267 -0.1902
 5605PW       W21749   3.585   3.812  12.532  0.3822 -0.2332 -0.2814
 5605PW      WP21750   3.573   3.806  12.672 -0.2508 -0.2766 -0.3222
 5605PW      WM21751   3.468   3.749  12.577  0.1150  0.3330 -0.1390
 5606PW       W21752   2.631   8.635  10.262 -0.1630 -0.0948  0.1867
 5606PW      WP21753   2.534   8.543  10.306 -0.0030 -0.4025 -0.0820
 5606PW      WM21754   2.733   8.544  10.231  0.1643  0.2053  0.3450
 5607PW       W21755   8.435  12.038   1.510  0.2537 -0.2476 -0.2670
 5607PW      WP21756   8.388  12.163   1.470  0.2566 -0.2471 -0.2691
 5607PW      WM21757   8.405  11.940   1.415 -0.0555  0.0372 -0.4736
 5608PW       W21758   7.410   6.777   4.266  0.0366 -0.0308  0.1675
 5608PW      WP21759   7.334   6.661   4.286  0.0604 -0.0770 -0.0012
 5608PW      WM21760   7.503   6.778   4.162  0.4638  0.5105  0.5306
 5609PW       W21761   1.368  11.822   1.898  0.1055  0.0976  0.0539
 5609PW      WP21762   1.322  11.892   2.010 -0.2145 -0.1156  0.0596
 5609PW      WM21763   1.398  11.958   1.916 -0.4131  0.2071  0.1588
 5610PW       W21764   9.271   3.825   3.681 -0.3852 -0.5216 -0.1660
 5610PW      WP21765   9.184   3.827   3.572 -0.2428 -0.2029 -0.2801
 5610PW      WM21766   9.257   3.752   3.800  0.5949  0.0637  0.3802
 5611PW       W21767   9.474   4.953   0.348 -0.0325  0.4493 -0.3981
 5611PW      WP21768   9.550   4.838   0.370 -0.3407  0.3251  0.1025
 5611PW      WM21769   9.423   4.829   0.307  0.0502  0.0982  0.4445
 5612PW       W21770   5.339   9.091   3.263 -0.1493  0.3000 -0.0910
 5612PW      WP21771   5.449   9.008   3.239 -0.1657  0.4517 -0.8087
 5612PW      WM21772   5.248   9.096   3.370  0.0289 -0.3128  0.1101
 5613PW       W21773   9.373   4.658  12.953  0.1358 -0.0257 -0.0870
 5613PW      WP21774   9.510   4.632  12.936  0.2034  0.4211 -0.2965
 5613PW      WM21775   9.288   4.675  12.843 -0.1701  0.0436  0.1551
 5614PW       W21776   6.507   7.286  11.586 -0.3372 -0.3630 -0.5625
 5614PW      WP21777   6.590   7.374  11.517  0.7130 -0.4330  0.4653
 5614PW      WM21778   6.376   7.237  11.604 -0.3941 -0.2025 -0.5305
 5615PW       W21779  11.930   8.082   9.664 -0.0775  0.3179 -0.2485
 5615PW      WP21780  11.842   7.976   9.687  0.5746 -0.2236 -0.0933
 5615PW      WM21781  11.803   8.120   9.618 -0.2068 -0.1399 -0.2953
 5616PW       W21782   2.328   8.994   0.562  0.2206  0.0081  0.2591
 5616PW      WP21783   2.437   8.968   0.478 -0.0974 -0.2442 -0.0993
 5616PW      WM21784   2.336   9.075   0.676  0.0054 -0.0852  0.3421
 5617PW       W21785   5.889   5.465   4.610  0.0560  0.0020 -0.4905
 5617PW      WP21786   5.942   5.338   4.583  0.1897 -0.0457 -0.0470
 5617PW      WM21787   5.986   5.565   4.611 -0.1240  0.1811 -0.4779
 5618PW       W21788   5.793   0.641  12.947 -0.0400  0.1035 -0.3073
 5618PW      WP21789   5.707   0.701  13.039  0.3084  0.2484 -0.0625
 5618PW      WM21790   5.686   0.710  12.888 -0.0289  0.1529 -0.2707
 5619PW       W21791   3.330   6.972  12.999 -0.0322  0.0645  0.0315
 5619PW      WP21792   3.385   6.868  13.075  0.5454  0.2030 -0.1683
 5619PW      WM21793   3.195   7.006  13.011  0.0242  0.3467 -0.0810
 5620PW       W21794  11.715   9.982   1.407  0.2624  0.1107 -0.5653
 5620PW      WP21795  11.616  10.079   1.389  0.5349  0.4526 -0.3131
 5620PW      WM21796  11.746  10.058   1.521 -0.3335 -0.0807 -0.2541
 5621PW       W21797   4.588   7.103   0.475 -0.0893  0.2341  0.0055
 5621PW      WP21798   4.477   7.189   0.480 -0.1456  0.1766 -0.1965
 5621PW      WM21799   4.627   7.043   0.355  0.1392  0.1232  0.1336
 5622PW       W21800   6.220   4.884   9.648  0.0255  0.0327 -0.0059
 5622PW      WP21801   6.163   4.780   9.722 -0.2839 -0.0128 -0.2940
 5622PW      WM21802   6.113   4.972   9.665  0.0910  0.1190 -0.0329
 5623PW       W21803   8.311   3.250   1.315 -0.2036 -0.2668 -0.0872
 5623PW      WP21804   8.342   3.225   1.181 -0.3072 -0.4528 -0.0777
 5623PW      WM21805   8.245   3.291   1.431 -0.3869  0.3071 -0.3748
 5624PW       W21806   3.250   1.673   4.109  0.1927 -0.2498  0.1390
 5624PW      WP21807   3.154   1.601   4.180  0.1330 -0.1182  0.1935
 5624PW      WM21808   3.377   1.717   4.150 -0.0693  0.2668  0.4496
 5625PW       W21809   1.793   7.484  10.991 -0.1143 -0.1850 -0.3052
 5625PW      WP21810   1.808   7.622  11.011 -0.4565 -0.2027  0.1653
 5625PW      WM21811   1.688   7.524  10.907 -0.0595 -0.0354 -0.3046
 5626PW       W21812   6.668   4.101  12.249  0.2805 -0.0187  0.1067
 5626PW      WP21813   6.622   4.056  12.125  0.3386  0.2535 -0.0161
 5626PW      WM21814   6.648   4.042  12.375  0.3131  0.0278  0.1335
 5627PW       W21815   4.570   5.036  11.704 -0.0479  0.2043 -0.2195
 5627PW      WP21816   4.625   5.094  11.819 -0.0581  0.1239 -0.1737
 5627PW      WM21817   4.491   5.150  11.687 -0.2454  0.1767  0.3995
 5628PW       W21818   9.689   0.544  12.293  0.5466  0.1675  0.2047
 5628PW      WP21819   9.779   0.450  12.345 -0.2539 -0.4193  0.6448
 5628PW      WM21820   9.806   0.567  12.220  0.6239  0.1910  0.3354
 5629PW       W21821   5.879  10.761   8.670  0.0972 -0.0933  0.3794
 5629PW      WP21822   5.745  10.790   8.641  0.0919 -0.0787  0.4186
 5629PW      WM21823   6.006  10.794   8.620  0.1740 -0.3994  0.3601
 5630PW       W21824   4.428   3.210  12.943  0.1284  0.2320 -0.0622
 5630PW      WP21825   4.419   3.207  13.083 -0.2434  0.2577 -0.0792
 5630PW      WM21826   4.355   3.287  12.852  0.3343  0.1846 -0.2726
 5631PW       W21827   9.941  11.253   2.531 -0.5089 -0.0809 -0.0564
 5631PW      WP21828   9.950  11.356   2.625 -0.3111  0.0554 -0.2198
 5631PW      WM21829  10.022  11.229   2.419 -0.1380  0.2272  0.1328
 5632PW       W21830   3.329   2.085   0.586 -0.1847  0.3106 -0.3802
 5632PW      WP21831   3.316   1.947   0.605  0.3122  0.2702 -0.2751
 5632PW      WM21832   3.318   2.006   0.701 -0.0416  0.1122 -0.4990
 5633PW       W21833   1.264   3.925  11.154  0.2050  0.3181  0.3590
 5633PW      WP21834   1.310   3.800  11.198 -0.2931  0.0930  0.2772
 5633PW      WM21835   1.325   3.817  11.088  0.1269  0.2730  0.3592
 5634PW       W21836   5.695   4.348   3.783 -0.0755  0.1105  0.0992
 5634PW      WP21837   5.648   4.472   3.739  0.2581  0.1577 -0.1457
 5634PW      WM21838   5.721   4.333   3.920  0.1146 -0.2693  0.0278
 5635PW       W21839   0.668   5.981   8.837  0.1695 -0.0493 -0.2608
 5635PW      WP21840   0.765   5.880   8.833  0.0425 -0.1771 -0.1591
 5635PW      WM21841   0.704   6.066   8.731  0.4272  0.0885 -0.0684
 5636PW       W21842   1.718   0.513   1.929 -0.0243 -0.2169  0.3585
 5636PW      WP21843   1.641   0.551   2.040 -0.6763  0.0941 -0.1678
 5636PW      WM21844   1.801   0.400   1.935  0.2692 -0.0388 -0.0600
 5637PW       W21845   1.216   1.580   9.432  0.1642  0.2034  0.0481
 5637PW      WP21846   1.266   1.451   9.412  0.5422  0.3062  0.2742
 5637PW      WM21847   1.181   1.661   9.323 -0.2802 -0.0862 -0.0367
 5638PW       W21848   8.927   7.094   0.500 -0.2193  0.0147  0.3730
 5638PW      WP21849   8.983   7.006   0.593  0.4004 -0.0375 -0.0221
 5638PW      WM21850   8.884   6.969   0.547 -0.1783 -0.1268  0.0479
 5639PW       W21851   8.354  10.432  13.013  0.2438 -0.0323  0.1791
 5639PW      WP21852   8.270  10.523  13.078  0.3903  0.1182  0.1601
 5639PW      WM21853   8.251  10.389  12.929  0.1833  0.2785  0.0884
 5640PW       W21854   2.955   0.625   4.351  0.5589  0.5069  0.3883
 5640PW      WP21855   2.957   0.576   4.482 -0.3130  0.3794  0.3807
 5640PW      WM21856   2.913   0.740   4.418  0.0618  0.2775  0.4938
 5641PW       W21857   6.954   0.593   0.842 -0.3096  0.2479 -0.8213
 5641PW      WP21858   7.020   0.709   0.883 -0.0478 -0.2882  0.5078
 5641PW      WM21859   7.047   0.519   0.767 -0.2509 -0.4066 -0.1508
 5642PW       W21860  11.402   1.316   8.952  0.0358 -0.4702 -0.3175
 5642PW      WP21861  11.436   1.381   8.833 -0.3785  0.2514 -0.0719
 5642PW      WM21862  11.453   1.268   9.074  0.1038 -0.8451 -0.4867
 5643PW       W21863  10.420   3.520   4.124  0.2396 -0.1077 -0.0597
 5643PW      WP21864  10.457   3.385   4.135 -0.0829 -0.2167 -0.2375
 5643PW      WM21865  10.469   3.451   4.012  0.0942 -0.0975 -0.1311
 5644PW       W21866   7.918   6.450  13.223  0.1635  0.1607  0.3264
 5644PW      WP21867   8.053   6.468  13.192  0.0630  0.0406 -0.2451
 5644PW      WM21868   7.870   6.425  13.352 -0.0593  0.0890  0.2309
 5645PW       W21869   3.202  10.787   0.465 -0.2407  0.2945 -0.0100
 5645PW      WP21870   3.162  10.719   0.580 -0.3092 -0.2609 -0.3445
 5645PW      WM21871   3.256  10.798   0.336  0.2351  0.0385  0.1581
 5646PW       W21872   7.283  11.935   2.553 -0.1785  0.2548  0.5154
 5646PW      WP21873   7.333  11.823   2.620  0.0598 -0.1651 -0.3007
 5646PW      WM21874   7.160  11.993   2.589 -0.1273  0.5095  0.3016
 5647PW       W21875   1.071   2.318  10.503 -0.1020 -0.0440 -0.2773
 5647PW      WP21876   0.955   2.354  10.573  0.1945  0.1536  0.1299
 5647PW      WM21877   1.115   2.275  10.628 -0.2022  0.0895 -0.1948
 5648PW       W21878   8.413  11.437   2.475  0.0376  0.2829  0.0664
 5648PW      WP21879   8.502  11.414   2.369  0.3105  0.1753  0.3098
 5648PW      WM21880   8.284  11.477   2.440  0.0322  0.0793 -0.1591
 5649PW       W21881   5.333   7.497   4.024 -0.3174  0.2797  0.0364
 5649PW      WP21882   5.220   7.424   3.988 -0.2264  0.2797 -0.2602
 5649PW      WM21883   5.315   7.459   4.158  0.5422  0.1978  0.1599
 5650PW       W21884   5.151   2.843   8.865 -0.2135 -0.3821 -0.4501
 5650PW      WP21885   5.128   2.721   8.930  0.1862 -0.2768 -0.0877
 5650PW      WM21886   5.134   2.855   8.726 -0.3214  0.0772 -0.4047
 5651PW       W21887   0.146   3.428  10.374  0.1790 -0.0336  0.1466
 5651PW      WP21888   0.064   3.532  10.326  0.2329 -0.0320  0.0572
 5651PW      WM21889   0.273   3.464  10.328 -0.0186  0.6723  0.0910
 5652PW       W21890   2.799   3.409   9.725 -0.0040  0.5152 -0.1630
 5652PW      WP21891   2.851   3.449   9.602 -0.0355  0.2358 -0.2701
 5652PW      WM21892   2.729   3.482   9.822 -0.2393 -0.2980  0.3348
 5653PW       W21893   0.429   5.468   5.218 -0.1049  0.0550 -0.4999
 5653PW      WP21894   0.293   5.503   5.223 -0.1600 -0.1765  0.5273
 5653PW      WM21895   0.552   5.454   5.282 -0.3720 -0.2216 -0.0245
 5654PW       W21896  10.424   0.858  12.953  0.0099 -0.4075  0.7690
 5654PW      WP21897  10.484   0.941  13.048  0.1590  0.3579  0.0601
 5654PW      WM21898  10.309   0.929  12.989  0.3714  0.4651  0.3448
 5655PW       W21899   4.788  12.032   8.334 -0.0416 -0.1047  0.3336
 5655PW      WP21900   4.921  12.047   8.375  0.1143 -0.1928 -0.1106
 5655PW      WM21901   4.700  11.952   8.407 -0.5495  0.3070  0.2030
 5656PW       W21902   7.617   2.197   2.574 -0.5153  0.1652 -0.4039
 5656PW      WP21903   7.528   2.224   2.469 -0.7477 -0.0249 -0.2615
 5656PW      WM21904   7.729   2.145   2.509 -0.2063 -0.0123  0.2278
 5657PW       W21905   7.267   5.056   8.859  0.0857  0.4332 -0.2210
 5657PW      WP21906   7.284   5.195   8.873  0.2723  0.4414 -0.4973
 5657PW      WM21907   7.226   4.986   8.973  0.7523 -0.2336 -0.3533
 5658PW       W21908   6.289  11.846   3.370  0.3058  0.1803  0.0441
 5658PW      WP21909   6.304  11.977   3.420  0.1788  0.3519 -0.3510
 5658PW      WM21910   6.397  11.789   3.303  0.5189  0.0576  0.4711
 5659PW       W21911   6.462   7.840  11.829 -0.1365  0.2754  0.2220
 5659PW      WP21912   6.596   7.819  11.796 -0.2184  0.0101  0.0370
 5659PW      WM21913   6.521   7.966  11.815  0.3336  0.1072  0.5593
 5660PW       W21914   6.768   4.965   2.731 -0.3772  0.1920 -0.0465
 5660PW      WP21915   6.755   4.971   2.591  0.3963  0.4402 -0.1307
 5660PW      WM21916   6.729   5.006   2.859  0.0221 -0.1795  0.2075
 5661PW       W21917   8.927   7.224   1.951 -0.0051  0.0043 -0.1420
 5661PW      WP21918   8.889   7.340   2.019 -0.1259  0.0118 -0.2211
 5661PW      WM21919   9.067   7.221   1.949  0.0045  0.2672 -0.0493
 5662PW       W21920   0.279   4.788  13.027  0.0327 -0.1554  0.1883
 5662PW      WP21921   0.352   4.845  12.921 -0.3899  0.2990  0.1235
 5662PW      WM21922   0.172   4.845  12.958  0.2601  0.1676  0.0875
 5663PW       W21923   4.397   9.202  12.663 -0.0748  0.2581 -0.1862
 5663PW      WP21924   4.339   9.283  12.564 -0.1481 -0.2330 -0.5654
 5663PW      WM21925   4.372   9.131  12.545 -0.0249  0.1124 -0.1091
 5664PW       W21926   2.638   1.974   4.233 -0.1377  0.0030 -0.0615
 5664PW      WP21927   2.666   1.954   4.369  0.0323 -0.0954 -0.1095
 5664PW      WM21928   2.716   2.067   4.163 -0.0597 -0.0395 -0.0327
 5665PW       W21929   9.516  10.237  10.909 -0.0288 -0.2093  0.3963
 5665PW      WP21930   9.436  10.289  11.012 -0.3190  0.5579 -0.1655
 5665PW      WM21931   9.431  10.341  10.867  0.2184 -0.0851  0.1877
 5666PW       W21932   3.313   7.601   0.355 -0.1089 -0.3285 -0.0280
 5666PW      WP21933   3.287   7.626   0.490  0.3337  0.1522 -0.0140
 5666PW      WM21934   3.268   7.503   0.266  0.1330 -0.2351 -0.2611
 5667PW       W21935   9.489   9.348  11.956 -0.2037 -0.0885 -0.0447
 5667PW      WP21936   9.586   9.371  11.857  0.2481  0.0084  0.3978
 5667PW      WM21937   9.375   9.305  11.887 -0.1368 -0.5612  0.1211
 5668PW       W21938   5.346   5.864   3.995 -0.3606 -0.4435  0.1247
 5668PW      WP21939   5.207   5.849   4.004 -0.4941  0.3395 -0.1810
 5668PW      WM21940   5.451   5.838   4.084 -0.0833  0.3566  0.0767
 5669PW       W21941  11.435   8.598   0.493 -0.3515 -0.6033  0.4065
 5669PW      WP21942  11.297   8.608   0.472 -0.3107 -0.9157 -0.0834
 5669PW      WM21943  11.470   8.668   0.609  0.3094 -0.1738 -0.0211
 5670PW       W21944   2.939   1.880   9.216 -0.1677  0.0780 -0.6605
 5670PW      WP21945   2.820   1.810   9.193 -0.2668 -0.0834  0.1928
 5670PW      WM21946   3.050   1.869   9.131  0.0539  0.0334 -0.3748
 5671PW       W21947   8.710   6.371   5.481 -0.1201  0.3636 -0.0286
 5671PW      WP21948   8.755   6.432   5.599  0.3985  0.0268 -0.0358
 5671PW      WM21949   8.636   6.443   5.576 -0.3171  0.6448 -0.3818
 5672PW       W21950   7.220   1.856  10.738  0.2334 -0.3009  0.4162
 5672PW      WP21951   7.355   1.876  10.708  0.1126 -0.3230 -0.1882
 5672PW      WM21952   7.153   1.977  10.762  0.4241 -0.0943 -0.0424
 5673PW       W21953   7.861  11.018   8.851  0.1686 -0.3326  0.1505
 5673PW      WP21954   7.772  11.045   8.956  0.4581  0.3383  0.2477
 5673PW      WM21955   7.988  10.975   8.812  0.2019 -0.0817 -0.0301
 5674PW       W21956  10.106   9.635   9.309 -0.6142 -0.1473 -0.0206
 5674PW      WP21957  10.157   9.653   9.180 -0.1441  0.0402  0.1791
 5674PW      WM21958  10.149   9.659   9.440  0.1481  0.0184 -0.2744
 5675PW       W21959   7.126   9.464   8.204  0.3326 -0.0922  0.3665
 5675PW      WP21960   7.077   9.347   8.144  0.7732  0.0479 -0.3277
 5675PW      WM21961   7.164   9.457   8.070 -0.3474 -0.1614  0.1555
 5676PW       W21962   0.773   8.797   9.737 -0.0542 -0.4516 -0.0003
 5676PW      WP21963   0.667   8.829   9.823  0.2653  0.2946  0.1525
 5676PW      WM21964   0.908   8.830   9.747 -0.1332 -0.0878 -0.0664
 5677PW       W21965  11.147   6.145   9.162 -0.4409 -0.0940  0.1067
 5677PW      WP21966  11.227   6.245   9.217 -0.6060  0.0064  0.1668
 5677PW      WM21967  11.256   6.064   9.129  0.2516  0.6858  0.3217
 5678PW       W21968   9.064   4.098  11.912 -0.1394 -0.3218 -0.0912
 5678PW      WP21969   9.194   4.098  11.860 -0.0604  0.3493  0.0610
 5678PW      WM21970   8.933   4.099  11.862  0.0204  0.4644 -0.6024
 5679PW       W21971   8.571  10.745   2.128 -0.0682  0.1993 -0.3404
 5679PW      WP21972   8.528  10.712   2.257  0.7930  0.3121  0.0103
 5679PW      WM21973   8.473  10.720   2.031  0.1346 -0.1325 -0.4651
 5680PW       W21974   0.278   8.550   8.829  0.0322  0.0266 -0.0407
 5680PW      WP21975   0.230   8.491   8.947  0.1292 -0.1011 -0.0642
 5680PW      WM21976   0.210   8.671   8.847  0.0382  0.0407 -0.1112
 5681PW       W21977   6.109   5.747   0.398 -0.7937 -0.2449 -0.1435
 5681PW      WP21978   6.102   5.871   0.464 -0.0315 -0.3984  0.2939
 5681PW      WM21979   6.203   5.759   0.295 -0.4869  0.0894  0.1594
 5682PW       W21980   6.517   8.407  11.902 -0.2099 -0.0210  0.0630
 5682PW      WP21981   6.499   8.464  12.028 -0.4332 -0.1919  0.1118
 5682PW      WM21982   6.653   8.407  11.870 -0.2014  0.1547  0.0952
 5683PW       W21983   3.062   0.199   2.602 -0.4028 -0.0516  0.3565
 5683PW      WP21984   3.019   0.066   2.618 -0.0480 -0.1551  0.4957
 5683PW      WM21985   2.944   0.268   2.572 -0.1315  0.2555 -0.0741
 5684PW       W21986   6.190   4.281  12.277  0.3171 -0.0948 -0.0369
 5684PW      WP21987   6.262   4.213  12.376 -0.0783 -0.0952  0.2629
 5684PW      WM21988   6.146   4.370  12.376  0.3888  0.3609 -0.3969
 5685PW       W21989   0.510   3.979  12.970  0.1069  0.0988 -0.0210
 5685PW      WP21990   0.624   4.050  12.931  0.0841  0.0486 -0.1820
 5685PW      WM21991   0.505   4.021  13.103 -0.0389  0.0380 -0.0063
 5686PW       W21992   5.694   8.108   4.576 -0.2000 -0.1490  0.4060
 5686PW      WP21993   5.798   8.182   4.518 -0.4367  0.0460  0.2210
 5686PW      WM21994   5.675   8.085   4.439  0.1800  0.1921  0.2849
 5687PW       W21995   8.217   0.127   9.815 -0.0272 -0.0318 -0.4658
 5687PW      WP21996   8.092   0.072   9.784 -0.0183 -0.0446 -0.4784
 5687PW      WM21997   8.332   0.110   9.893  0.0937  0.2934 -0.5629
 5688PW       W21998  11.039  10.398   9.484 -0.1017 -0.1257 -0.1187
 5688PW      WP21999  10.963  10.344   9.589  0.0906  0.3420  0.2814
 5688PW      WM22000  11.131  10.442   9.388  0.0548  0.0591  0.1106
 5689PW       W22001   9.524   7.823   4.354 -0.1762  0.1647  0.1101
 5689PW      WP22002   9.525   7.929   4.263  0.3540 -0.0215 -0.1275
 5689PW      WM22003   9.483   7.910   4.253  0.2821  0.3163  0.0414
 5690PW       W22004   2.506   6.664   1.746 -0.2822  0.4825  0.1731
 5690PW      WP22005   2.510   6.605   1.619  0.0045  0.0890  0.3552
 5690PW      WM22006   2.567   6.747   1.841 -0.1170  0.1286  0.3868
 5691PW       W22007   9.084   5.224   9.768 -0.0096 -0.0633  0.1232
 5691PW      WP22008   9.054   5.330   9.855  0.1378 -0.0501  0.1582
 5691PW      WM22009   9.165   5.317   9.702  0.0219 -0.4113 -0.3534
 5692PW       W22010   5.700   4.642   3.315 -0.1992  0.5139 -0.0833
 5692PW      WP22011   5.605   4.649   3.213 -0.2140  0.1345 -0.1051
 5692PW      WM22012   5.811   4.681   3.391  0.1560 -0.3672 -0.0875
 5693PW       W22013   0.294   0.342   1.262 -0.1406  0.1368  0.1787
 5693PW      WP22014   0.161   0.387   1.271 -0.3761 -0.4643 -0.0211
 5693PW      WM22015   0.275   0.294   1.392 -0.2547 -0.0667  0.0894
 5694PW       W22016   5.030   4.230   8.596  0.1121  0.6909  0.1252
 5694PW      WP22017   4.924   4.315   8.561 -0.1675  0.0893 -0.6342
 5694PW      WM22018   5.113   4.342   8.606  0.3189  0.5340  0.2184
 5695PW       W22019   5.317   0.538   1.853 -0.1635 -0.2803  0.3423
 5695PW      WP22020   5.273   0.411   1.895  0.1343 -0.5225 -0.0421
 5695PW      WM22021   5.433   0.496   1.919  0.2902 -0.2140 -0.3648
 5696PW       W22022   3.891   6.601  11.248 -0.2626 -0.2088  0.1974
 5696PW      WP22023   3.962   6.530  11.346  0.1594  0.1610  0.1730
 5696PW      WM22024   3.947   6.728  11.232 -0.2216 -0.2686 -0.1764
 5697PW       W22025   9.224   0.067   9.453 -0.3389  0.0686 -0.4906
 5697PW      WP22026   9.320   0.140   9.524 -0.2876 -0.4936  0.0599
 5697PW      WM22027   9.143   0.160   9.520  0.0687 -0.1392  0.3599
 5698PW       W22028  11.860   2.221   0.680 -0.0004  0.0033 -0.1521
 5698PW      WP22029  11.937   2.209   0.796  0.0767 -0.5562 -0.2505
 5698PW      WM22030  11.959   2.139   0.736 -0.2992 -0.3152 -0.0743
 5699PW       W22031  11.887   7.113  12.272  0.0328  0.3718 -0.1187
 5699PW      WP22032  12.018   7.130  12.226  0.0889  0.0900 -0.0741
 5699PW      WM22033  11.751   7.145  12.265 -0.1259 -0.1866  0.1726
 5700PW       W22034   9.106  10.309   3.713  0.4457  0.2402 -0.1323
 5700PW      WP22035   9.127  10.172   3.737 -0.0731  0.0813 -0.4822
 5700PW      WM22036   9.132  10.417   3.797 -0.0256  0.1527  0.1437
 5701PW       W22037   1.418   3.572  11.539  0.0207  0.0925  0.2548
 5701PW      WP22038   1.414   3.712  11.531  0.1389  0.0747 -0.2770
 5701PW      WM22039   1.299   3.594  11.469 -0.1565  0.5093  0.6594
 5702PW       W22040  12.010   8.745   9.818 -0.2522 -0.3872 -0.2869
 5702PW      WP22041  11.875   8.719   9.839 -0.2723  0.1096  0.3583
 5702PW      WM22042  12.145   8.708   9.831 -0.1709  0.0136  0.1671
 5703PW       W22043   9.217  10.885   9.330  0.3837 -0.3870  0.3190
 5703PW      WP22044   9.344  10.839   9.292  0.4067  0.1080 -0.3002
 5703PW      WM22045   9.288  10.997   9.376 -0.3616  0.3568 -0.1895
 5704PW       W22046  11.404   4.824  11.095 -0.0623  0.1998  0.1035
 5704PW      WP22047  11.451   4.883  11.213 -0.1753  0.2798  0.1085
 5704PW      WM22048  11.270   4.804  11.129 -0.1005  0.3564  0.0510
 5705PW       W22049   1.439  10.418   3.725 -0.0085  0.1046 -0.0324
 5705PW      WP22050   1.539  10.330   3.769 -0.1022  0.0708  0.1149
 5705PW      WM22051   1.417  10.343   3.608 -0.2941 -0.0307  0.1039
 5706PW       W22052   4.774   1.982  10.050 -0.2544 -0.5351 -0.0645
 5706PW      WP22053   4.818   1.931  10.173  0.0195 -0.0230  0.0623
 5706PW      WM22054   4.804   1.860  10.111 -0.2706 -0.1185  0.8591
 5707PW       W22055   1.684   3.709   4.415  0.0833 -0.1113 -0.1361
 5707PW      WP22056   1.708   3.824   4.339  0.0626  0.2483  0.3746
 5707PW      WM22057   1.659   3.843   4.445 -0.0833 -0.1415 -0.1372
 5708PW       W22058   1.663   5.024   4.451 -0.0602 -0.1305 -0.1193
 5708PW      WP22059   1.661   4.886   4.426  0.0971 -0.1763  0.0970
 5708PW      WM22060   1.541   5.077   4.408  0.2246  0.3988 -0.3157
 5709PW       W22061   4.766   1.321   0.673  0.0116  0.2766 -0.3579
 5709PW      WP22062   4.787   1.320   0.811  0.0696  0.3830 -0.3662
 5709PW      WM22063   4.628   1.334   0.694  0.0747  0.0621  0.3204
 5710PW       W22064   0.720  11.689  11.278  0.3086  0.0493  0.1105
 5710PW      WP22065   0.616  11.670  11.370  0.2263  0.2462  0.0616
 5710PW      WM22066   0.808  11.585  11.312  0.2670  0.0194  0.1272
 5711PW       W22067   9.612   7.844  10.043 -0.1050 -0.3524  0.1097
 5711PW      WP22068   9.722   7.835   9.957 -0.3751 -0.2545 -0.2571
 5711PW      WM22069   9.529   7.777  10.133 -0.4215 -0.1223 -0.0042
 5712PW       W22070  11.653   0.737   3.907 -0.0232 -0.0060  0.2106
 5712PW      WP22071  11.657   0.690   3.776  0.1525 -0.0096  0.2171
 5712PW      WM22072  11.575   0.670   4.003 -0.1829 -0.5243 -0.2505
 5713PW       W22073  10.381   6.860  11.658 -0.2168  0.0684  0.0659
 5713PW      WP22074  10.352   6.905  11.529 -0.0732 -0.2587 -0.0876
 5713PW      WM22075  10.469   6.760  11.702  0.2620  0.2591 -0.4120
 5714PW       W22076  10.928   2.293   4.160  0.4789 -0.0478 -0.3044
 5714PW      WP22077  10.953   2.402   4.076  0.0667 -0.0069 -0.3850
 5714PW      WM22078  11.023   2.269   4.260 -0.1655 -0.3854  0.2698
 5715PW       W22079   7.755   5.026   4.246  0.2496  0.4304  0.1459
 5715PW      WP22080   7.758   4.912   4.327 -0.1908 -0.1642 -0.6147
 5715PW      WM22081   7.661   5.019   4.143  0.2222  0.2311  0.1827
 5716PW       W22082   2.571  11.998   3.739  0.1396  0.2329  0.2671
 5716PW      WP22083   2.517  11.869   3.751  0.7774 -0.0547  0.2825
 5716PW      WM22084   2.517  12.099   3.819  0.1526  0.5159 -0.0709
 5717PW       W22085   0.360  11.037   9.653  0.0361 -0.1828  0.2567
 5717PW      WP22086   0.490  10.998   9.685  0.1232  0.0346  0.1803
 5717PW      WM22087   0.264  10.935   9.658 -0.3967  0.1818 -0.0694
 5718PW       W22088   5.898   1.302   8.102  0.2241  0.2166  0.0317
 5718PW      WP22089   6.021   1.369   8.092 -0.0676  0.7380 -0.2729
 5718PW      WM22090   5.994   1.211   8.149  0.0291  0.1435  0.2993
 5719PW       W22091   2.102   6.677   9.472  0.1192 -0.0189  0.2197
 5719PW      WP22092   1.990   6.694   9.554 -0.3304 -0.1506 -0.3345
 5719PW      WM22093   2.116   6.551   9.413  0.3667  0.2183 -0.2633
 5720PW       W22094  10.119   4.895   3.068 -0.1427  0.0958 -0.0313
 5720PW      WP22095  10.149   4.767   3.116  0.1512  0.1891  0.0404
 5720PW      WM22096  10.138   4.870   3.204  0.3207  0.0002 -0.1059
 5721PW       W22097   3.075  10.731  10.178 -0.6512  0.0173  0.1035
 5721PW      WP22098   2.951  10.666  10.188 -0.4830 -0.3727 -0.1962
 5721PW      WM22099   3.014  10.821  10.266  0.0891  0.6880 -0.0193
 5722PW       W22100   6.760  12.068  10.129  0.2340  0.1697 -0.1083
 5722PW      WP22101   6.673  11.959  10.118  0.1642  0.1989  0.1206
 5722PW      WM22102   6.893  12.073  10.171  0.2416  0.9113 -0.1501
 5723PW       W22103   4.871   3.122   2.930 -0.1848  0.1428 -0.0838
 5723PW      WP22104   4.752   3.051   2.945 -0.2179  0.2079 -0.0359
 5723PW      WM22105   4.993   3.164   2.984 -0.1894 -0.2848  0.2918
 5724PW       W22106   8.309  11.213  12.530  0.1173  0.0816  0.0693
 5724PW      WP22107   8.370  11.335  12.500 -0.3606  0.3239  0.0417
 5724PW      WM22108   8.328  11.207  12.392 -0.5750 -0.1116 -0.0349
 5725PW       W22109   1.510  11.511   9.404 -0.3621  0.1535 -0.1006
 5725PW      WP22110   1.548  11.620   9.484  0.8749 -0.3332  0.0895
 5725PW      WM22111   1.565  11.455   9.288 -0.3382  0.4550 -0.2401
 5726PW       W22112   3.763   7.951  11.475 -0.0476 -0.3650 -0.5447
 5726PW      WP22113   3.668   7.993  11.569 -0.1329 -0.6020 -0.5239
 5726PW      WM22114   3.702   8.037  11.383 -0.2286  0.0343 -0.0716
 5727PW       W22115   4.325   0.767   3.069 -0.1586 -0.3151  0.0392
 5727PW      WP22116   4.189   0.802   3.076 -0.1392 -0.1160 -0.4206
 5727PW      WM22117   4.403   0.760   3.185  0.1595 -0.5817 -0.1852
 5728PW       W22118   4.243   9.908  10.116  0.1408  0.4509  0.0288
 5728PW      WP22119   4.285   9.775  10.131  0.0729  0.4405  0.1355
 5728PW      WM22120   4.114   9.889  10.165  0.3317 -0.4714  0.2670
 5729PW       W22121   2.648   9.230   4.950  0.6744  0.1317 -0.1750
 5729PW      WP22122   2.695   9.109   5.003 -0.7641 -0.4212  0.0714
 5729PW      WM22123   2.571   9.196   4.838 -0.2302 -0.4844  0.5597
 5730PW       W22124   6.585   7.541   2.168  0.2279 -0.1601  0.0436
 5730PW      WP22125   6.510   7.457   2.085 -0.1791 -0.0598  0.2934
 5730PW      WM22126   6.683   7.622   2.110  0.1640 -0.2288 -0.1632
 5731PW       W22127   7.759   0.476   9.682 -0.0941  0.5160  0.6648
 5731PW      WP22128   7.895   0.508   9.681 -0.0155  0.3081 -0.3962
 5731PW      WM22129   7.679   0.562   9.606 -0.0658 -0.3421 -0.4560
 5732PW       W22130   2.230  10.222  11.254  0.0507 -0.3757 -0.2201
 5732PW      WP22131   2.302  10.263  11.141  0.1464 -0.1286 -0.0747
 5732PW      WM22132   2.364  10.204  11.291 -0.0346 -0.0113  0.3238
 5733PW       W22133   4.939   4.115   3.604 -0.2494 -0.2247  0.0324
 5733PW      WP22134   4.801   4.117   3.581 -0.1619  0.0638 -0.5750
 5733PW      WM22135   5.060   4.162   3.552 -0.5996  0.2086 -0.4394
 5734PW       W22136   3.876   0.612   5.309 -0.2439  0.3576  0.1008
 5734PW      WP22137   3.935   0.734   5.274  0.0126  0.1637 -0.1591
 5734PW      WM22138   3.743   0.656   5.303 -0.3370  0.0713 -0.0410
 5735PW       W22139  11.413   2.474  12.803  0.1897 -0.0720  0.1036
 5735PW      WP22140  11.480   2.595  12.826 -0.0750  0.0471  0.2616
 5735PW      WM22141  11.470   2.465  12.675  0.3291 -0.0678  0.1641
 5736PW       W22142   1.275   6.811   9.937 -0.0148  0.2721  0.0966
 5736PW      WP22143   1.373   6.810  10.037  0.7977 -0.3961 -0.6293
 5736PW      WM22144   1.224   6.908   9.849 -0.1151  0.0976 -0.0412
 5737PW       W22145  10.194   9.031  11.995 -0.1767 -0.0664 -0.1666
 5737PW      WP22146  10.141   9.157  12.028 -0.3907 -0.2238  0.1116
 5737PW      WM22147  10.333   9.017  11.988 -0.1351  0.2463 -0.0565
 5738PW       W22148   7.449   2.271   1.432  0.2952 -0.2974  0.2022
 5738PW      WP22149   7.324   2.289   1.492  0.1808  0.4301 -0.1880
 5738PW      WM22150   7.489   2.151   1.491  0.2888 -0.3933  0.0127
 5739PW       W22151   5.303   1.389   3.979 -0.2874  0.0678  0.0330
 5739PW      WP22152   5.246   1.498   4.046  0.3550  0.4449  0.0075
 5739PW      WM22153   5.427   1.388   4.044 -0.1881  0.0867 -0.1543
 5740PW       W22154   3.661   6.063   2.920 -0.0135  0.1071 -0.0620
 5740PW      WP22155   3.585   5.959   2.974  0.4961 -0.3659 -0.2024
 5740PW      WM22156   3.755   6.167   2.912 -0.4201  0.5253  0.3285
 5741PW       W22157   7.517   8.454   2.156 -0.4352  0.1673  0.5122
 5741PW      WP22158   7.635   8.528   2.143 -0.2243 -0.1918  0.2908
 5741PW      WM22159   7.589   8.397   2.261  0.2810  0.2191  0.0809
 5742PW       W22160   2.633   7.557   1.966  0.7343 -0.4971 -0.0615
 5742PW      WP22161   2.617   7.452   1.875  0.0940 -0.2154 -0.3085
 5742PW      WM22162   2.606   7.693   1.943  0.3806 -0.5890 -0.2172
 5743PW       W22163  10.394  10.856   9.791  0.1347  0.2473 -0.3553
 5743PW      WP22164  10.331  10.968   9.846 -0.3889 -0.2284  0.0869
 5743PW      WM22165  10.329  10.765   9.875  0.2809  0.6228  0.1877
 5744PW       W22166   2.423   6.473  13.063 -0.2021  0.1481  0.2036
 5744PW      WP22167   2.513   6.542  12.980 -0.3052  0.3296  0.2387
 5744PW      WM22168   2.447   6.382  13.166 -0.2296 -0.6786 -0.4652
 5745PW       W22169   2.116   4.229  13.122  0.4334  0.6002 -0.0246
 5745PW      WP22170   2.109   4.220  12.982  0.2480  0.1082  0.0084
 5745PW      WM22171   2.217   4.174  13.201  0.1153  0.2109  0.1298
 5746PW       W22172   6.258   9.642   4.150 -0.1448  0.0362 -0.3782
 5746PW      WP22173   6.353   9.632   4.048  0.1182  0.0872 -0.1463
 5746PW      WM22174   6.212   9.523   4.209 -0.2045  0.0090 -0.4796
 5747PW       W22175   4.984   7.454   1.436  0.2864 -0.1497 -0.3614
 5747PW      WP22176   4.975   7.442   1.576  0.3300 -0.4145 -0.3804
 5747PW      WM22177   4.895   7.404   1.340  0.3172 -0.0100 -0.4641
 5748PW       W22178   0.164  10.446   3.047  0.2440  0.1549 -0.1676
 5748PW      WP22179   0.217  10.454   3.176  0.0061 -0.3374 -0.0314
 5748PW      WM22180   0.076  10.369   3.123  0.0128  0.1039 -0.4762
 5749PW       W22181   2.404   4.466   0.097 -0.4654  0.2903  0.0612
 5749PW      WP22182   2.307   4.397   0.024  0.1666  0.0423 -0.6098
 5749PW      WM22183   2.462   4.444   0.223 -0.1638 -0.4899 -0.1810
 5750PW       W22184   3.585   1.475  11.718 -0.4361 -0.3083 -0.0604
 5750PW      WP22185   3.645   1.595  11.679 -0.3890 -0.2682  0.1308
 5750PW      WM22186   3.588   1.442  11.854 -0.2376  0.5503  0.1749
 5751PW       W22187   8.159   6.994  10.738  0.5016 -0.0323 -0.1297
 5751PW      WP22188   8.190   7.014  10.873 -0.3251 -0.2004  0.1169
 5751PW      WM22189   8.177   6.856  10.721  0.0323 -0.0713 -0.3923
 5752PW       W22190   5.351   7.985   4.212  0.3836  0.1688  0.0629
 5752PW      WP22191   5.357   7.970   4.352 -0.3130  0.0421  0.0961
 5752PW      WM22192   5.436   7.876   4.235  0.0489 -0.0894  0.1297
 5753PW       W22193   2.583   5.690  12.972 -0.1431  0.2287 -0.2064
 5753PW      WP22194   2.554   5.664  13.107 -0.4795 -0.5052 -0.3912
 5753PW      WM22195   2.480   5.653  12.884 -0.0339  0.1573 -0.3054
 5754PW       W22196   5.957   0.001  11.853  0.0820  0.0220 -0.2482
 5754PW      WP22197   5.989   0.095  11.952 -0.3630 -0.3111  0.2380
 5754PW      WM22198   6.093   0.019  11.824  0.1706 -0.3663 -0.1115
 5755PW       W22199  10.656   4.650   0.106 -0.2603 -0.4331 -0.1136
 5755PW      WP22200  10.654   4.777   0.049 -0.2599 -0.3213  0.1281
 5755PW      WM22201  10.611   4.583  -0.008 -0.6037 -0.6919  0.1605
 5756PW       W22202   1.698   1.351   4.594  0.5031 -0.1086  0.0872
 5756PW      WP22203   1.784   1.428   4.675 -0.1383  0.7238  0.0492
 5756PW      WM22204   1.666   1.271   4.484  0.7365  0.0842 -0.1295
 5757PW       W22205  11.795   8.074   9.159 -0.1652  0.2279  0.3026
 5757PW      WP22206  11.797   7.987   9.050  0.2842  0.1939  0.3292
 5757PW      WM22207  11.777   8.197   9.094 -0.4548 -0.1883 -0.4776
 5758PW       W22208   8.979   6.075   0.943  0.2840 -0.2104  0.3316
 5758PW      WP22209   8.853   6.135   0.928  0.5762  0.3223 -0.2244
 5758PW      WM22210   9.010   6.173   1.038 -0.4952  0.6518 -0.2129
 5759PW       W22211   1.328   8.621   3.223 -0.2136 -0.2840 -0.6283
 5759PW      WP22212   1.238   8.726   3.201 -0.3169 -0.2153  0.0151
 5759PW      WM22213   1.334   8.518   3.319  0.7102  0.4797  0.2429
 5760PW       W22214   3.149   3.081   5.196 -0.1051 -0.1560 -0.3359
 5760PW      WP22215   3.235   2.982   5.245 -0.1431  0.0319  0.1374
 5760PW      WM22216   3.082   3.144   5.090  0.1514  0.1765 -0.3085
 5761PW       W22217   5.770   4.720   0.993 -0.4123 -0.0626 -0.0131
 5761PW      WP22218   5.836   4.645   1.091  0.0045 -0.2635 -0.4304
 5761PW      WM22219   5.653   4.794   1.017 -0.6341 -0.3889 -0.0591
 5762PW       W22220   1.660   2.743  11.492  0.3032 -0.2641  0.1763
 5762PW      WP22221   1.591   2.651  11.411  0.3106  0.1993 -0.3910
 5762PW      WM22222   1.578   2.784  11.597 -0.3416 -0.1439 -0.3429
 5763PW       W22223   4.842   5.228  13.225  0.3183  0.0027  0.3694
 5763PW      WP22224   4.855   5.361  13.181  0.0197 -0.1267 -0.1565
 5763PW      WM22225   4.916   5.122  13.173  0.5370  0.2295  0.2075
 5764PW       W22226   8.069  10.377  12.269  0.0141  0.0911  0.1065
 5764PW      WP22227   8.026  10.330  12.394 -0.0320 -0.0569  0.0362
 5764PW      WM22228   7.975  10.444  12.189 -0.0094  0.1714  0.1995
 5765PW       W22229   9.722   2.254   9.203  0.0008  0.2448  0.1470
 5765PW      WP22230   9.780   2.306   9.086  0.2461  0.1671  0.2302
 5765PW      WM22231   9.740   2.119   9.234  0.0821  0.2343  0.0585
 5766PW       W22232  10.700  11.172   0.560 -0.1367 -0.0459 -0.3771
 5766PW      WP22233  10.620  11.057   0.549 -0.3049  0.0240  0.0194
 5766PW      WM22234  10.821  11.113   0.525  0.0912  0.2302 -0.0869
 5767PW       W22235  11.361   0.075   5.563 -0.0385 -0.1914  0.0678
 5767PW      WP22236  11.494   0.075   5.608  0.0650 -0.1576 -0.2265
 5767PW      WM22237  11.410  -0.053   5.533 -0.1134 -0.2009 -0.0178
 5768PW       W22238  10.024   0.720   5.446  0.1032 -0.0342 -0.0853
 5768PW      WP22239   9.971   0.608   5.381  0.1830 -0.0840 -0.0655
 5768PW      WM22240  10.019   0.822   5.350  0.2031  0.0191 -0.0354
 5769PW       W22241   9.724   0.694   3.556 -0.2020 -0.3818 -0.3882
 5769PW      WP22242   9.688   0.829   3.567 -0.1316 -0.3889  0.0338
 5769PW      WM22243   9.796   0.579   3.588  0.1547  0.0295  0.4497
 5770PW       W22244   6.420   5.840   0.916 -0.3775 -0.1251 -0.0874
 5770PW      WP22245   6.424   5.782   1.043  0.4064  0.0155 -0.0192
 5770PW      WM22246   6.450   5.741   0.821  0.0277 -0.0119 -0.0892
 5771PW       W22247   1.188  10.011   4.987 -0.4743  0.0455  0.2643
 5771PW      WP22248   1.269  10.031   5.100 -0.1492  0.4337 -0.0201
 5771PW      WM22249   1.139  10.142   4.974 -0.0134  0.1794 -0.3755
 5772PW       W22250   5.044   3.897  12.170 -0.1495 -0.5000 -0.0033
 5772PW      WP22251   5.107   3.849  12.055  0.7260 -0.3593  0.3763
 5772PW      WM22252   5.005   3.843  12.294  0.2645 -0.5312  0.1210
 5773PW       W22253  10.049   2.650  11.133 -0.1101 -0.1270 -0.4278
 5773PW      WP22254  10.023   2.622  10.998 -0.3432  0.0979 -0.4330
 5773PW      WM22255   9.960   2.702  11.227  0.3789 -0.0632  0.0213
 5774PW       W22256   5.455   9.451   5.497  0.0691 -0.0327  0.0433
 5774PW      WP22257   5.337   9.378   5.477 -0.0090  0.1347 -0.1182
 5774PW      WM22258   5.469   9.523   5.378  0.1486 -0.1105  0.0043
 5775PW       W22259  11.035   4.338  12.761 -0.5905  0.1332 -0.1304
 5775PW      WP22260  11.009   4.326  12.898  0.1678  0.3959  0.0604
 5775PW      WM22261  11.047   4.472  12.798  0.3452 -0.0100  0.2097
 5776PW       W22262   6.767   1.242  12.816 -0.1059 -0.0302 -0.2431
 5776PW      WP22263   6.691   1.141  12.876 -0.3445  0.0336 -0.4315
 5776PW      WM22264   6.899   1.230  12.769  0.2082  0.2420  0.4848
 5777PW       W22265   7.640   7.226  12.723 -0.2951  0.1116 -0.3262
 5777PW      WP22266   7.634   7.327  12.819 -0.2143 -0.1172 -0.0741
 5777PW      WM22267   7.733   7.150  12.794 -0.3254 -0.1689 -0.5743
 5778PW       W22268   9.020   2.012   1.551  0.2874  0.3043 -0.2792
 5778PW      WP22269   9.028   1.940   1.431 -0.3336 -0.0625 -0.1223
 5778PW      WM22270   8.980   2.108   1.458 -0.1553  0.1568 -0.2524
 5779PW       W22271   4.083  11.388   3.207 -0.0241  0.0927 -0.2141
 5779PW      WP22272   3.987  11.340   3.118 -0.1287  0.0652 -0.0889
 5779PW      WM22273   3.978  11.299   3.235  0.0054  0.1772  0.2009
 5780PW       W22274   1.711   4.894   4.913 -0.0309  0.0227  0.1761
 5780PW      WP22275   1.640   5.004   4.865  0.4419  0.4806  0.4718
 5780PW      WM22276   1.749   5.003   4.835 -0.0956  0.4919  0.7627
 5781PW       W22277   1.083   6.615   2.288 -0.3772 -0.1217  0.2935
 5781PW      WP22278   0.954   6.629   2.236 -0.1335  0.4761 -0.2118
 5781PW      WM22279   1.006   6.616   2.405 -0.2788 -0.0053  0.3590
 5782PW       W22280  10.850  11.489  10.729  0.2543  0.1767 -0.6459
 5782PW      WP22281  10.944  11.473  10.831 -0.1214  0.6142 -0.2083
 5782PW      WM22282  10.913  11.572  10.636  0.0848  0.5668 -0.4259
 5783PW       W22283   8.800  10.676  11.030 -0.0278 -0.1650  0.1412
 5783PW      WP22284   8.930  10.632  11.056 -0.1820 -0.7211  0.0185
 5783PW      WM22285   8.790  10.538  11.045 -0.5626 -0.1522  0.0040
 5784PW       W22286   6.650   0.421  11.556 -0.0482 -0.3027  0.3423
 5784PW      WP22287   6.725   0.303  11.552  0.1834 -0.1988  0.9703
 5784PW      WM22288   6.722   0.541  11.563 -0.1953 -0.1727 -0.1684
 5785PW       W22289  11.486   2.406   0.932 -0.6715  0.0978  0.1094
 5785PW      WP22290  11.544   2.530   0.905 -0.3592  0.0280  0.4286
 5785PW      WM22291  11.429   2.425   0.805  0.1391 -0.2316 -0.3439
 5786PW       W22292   5.339   2.752   9.982 -0.5028  0.0668 -0.0612
 5786PW      WP22293   5.446   2.840   9.964 -0.1172 -0.2576  0.4968
 5786PW      WM22294   5.282   2.714   9.859 -0.0549 -0.6607 -0.0769
 5787PW       W22295   5.375   9.851  12.277  0.0808  0.2792 -0.0007
 5787PW      WP22296   5.314   9.817  12.398 -0.2886  0.3341 -0.1645
 5787PW      WM22297   5.477   9.942  12.244  0.2458  0.1282  0.0847
 5788PW       W22298  11.947   1.266   4.603 -0.1226  0.2171 -0.6015
 5788PW      WP22299  11.824   1.237   4.662 -0.1176  0.3917 -0.5030
 5788PW      WM22300  12.078   1.302   4.568  0.0812 -0.2930 -0.4091
 5789PW       W22301   9.146   6.505  10.391 -0.1647  0.1948 -0.0933
 5789PW      WP22302   9.060   6.527  10.283 -0.2932 -0.2450 -0.0915
 5789PW      WM22303   9.105   6.379  10.437  0.4417  0.0999  0.2505
 5790PW       W22304   8.298   7.358   2.748 -0.0040 -0.1816 -0.1730
 5790PW      WP22305   8.397   7.451   2.781 -0.5911  0.3874  0.0704
 5790PW      WM22306   8.249   7.234   2.792  0.6953 -0.5014 -0.2198
 5791PW       W22307   4.870   7.716   9.161 -0.2870  0.6831  0.0953
 5791PW      WP22308   4.961   7.803   9.223  0.5714 -0.0057 -0.0865
 5791PW      WM22309   4.862   7.729   9.022  0.2453  0.3748  0.0196
 5792PW       W22310   5.889   1.043   9.014 -0.0331  0.3063  0.4145
 5792PW      WP22311   5.974   1.061   8.904  0.0292 -0.0159  0.4062
 5792PW      WM22312   5.779   0.974   8.963  0.1317  0.0798  0.3588
 5793PW       W22313   7.812   1.418   1.881  0.1564  0.1477  0.1798
 5793PW      WP22314   7.923   1.472   1.813  0.1630 -0.2175 -0.1142
 5793PW      WM22315   7.885   1.299   1.878 -0.3695 -0.1886 -0.4722
 5794PW       W22316   9.612   3.531   3.426  0.3957 -0.2052 -0.0898
 5794PW      WP22317   9.642   3.623   3.527  0.2295 -0.6204  0.3551
 5794PW      WM22318   9.542   3.419   3.475  0.7153 -0.2688  0.2430
 5795PW       W22319   2.346   6.427   3.396  0.0563 -0.1060  0.0340
 5795PW      WP22320   2.351   6.289   3.415  0.1128 -0.1149 -0.0427
 5795PW      WM22321   2.395   6.534   3.320  0.0861 -0.1138  0.0422
 5796PW       W22322   6.486   1.229   1.247 -0.2983  0.3703  0.1788
 5796PW      WP22323   6.347   1.238   1.231 -0.3001  0.1033  0.0128
 5796PW      WM22324   6.511   1.126   1.338  0.2046  0.2111 -0.1197
 5797PW       W22325   5.408  12.021  11.124 -0.4179  0.2073 -0.2347
 5797PW      WP22326   5.486  11.925  11.059 -0.2204 -0.2001  0.5337
 5797PW      WM22327   5.382  12.155  11.093 -0.2702  0.3075  0.0514
 5798PW       W22328  10.957  10.159  11.583 -0.4837  0.0729 -0.0030
 5798PW      WP22329  10.856  10.171  11.680 -0.5087 -0.1316 -0.0012
 5798PW      WM22330  10.982  10.067  11.685  0.5637  0.3522  0.0533
 5799PW       W22331   2.867   4.836   2.948  0.0150  0.0551 -0.1040
 5799PW      WP22332   3.001   4.808   2.921 -0.0691 -0.2726 -0.2019
 5799PW      WM22333   2.848   4.878   2.816 -0.3463  0.3046  0.0167
 5800PW       W22334  10.036   0.868  10.117 -0.1407 -0.1301 -0.3009
 5800PW      WP22335   9.933   0.908  10.032 -0.5010 -0.2980  0.0372
 5800PW      WM22336  10.112   0.762  10.065 -0.1423  0.0416 -0.6645
 5801PW       W22337   0.433   5.384   3.969  0.0437 -0.3660  0.1283
 5801PW      WP22338   0.419   5.515   4.016 -0.3402 -0.2294 -0.3276
 5801PW      WM22339   0.564   5.361   3.924  0.0763 -0.0929  0.0739
 5802PW       W22340   4.672   2.772  12.944  0.0731  0.3068 -0.1794
 5802PW      WP22341   4.754   2.779  12.831  0.1468  0.3681 -0.1232
 5802PW      WM22342   4.534   2.797  12.947  0.0799  0.3308  0.2663
 5803PW       W22343   0.987   1.819   0.946 -0.2539 -0.3944 -0.1981
 5803PW      WP22344   0.930   1.919   0.867 -0.1063  0.2153  0.4225
 5803PW      WM22345   0.906   1.783   1.054  0.0427  0.0822  0.2014
 5804PW       W22346   0.522   0.431  10.333 -0.1205 -0.0276 -0.2317
 5804PW      WP22347   0.560   0.469  10.463  0.3357 -0.3643 -0.2590
 5804PW      WM22348   0.436   0.334  10.386 -0.0197 -0.0741 -0.1505
 5805PW       W22349   2.437   1.393  12.370 -0.1238  0.2550  0.0163
 5805PW      WP22350   2.544   1.401  12.280  0.0942  0.3021  0.2727
 5805PW      WM22351   2.305   1.371  12.411 -0.0372 -0.3366  0.0199
 5806PW       W22352   1.942  11.977   4.160 -0.1953  0.1393  0.1933
 5806PW      WP22353   1.993  11.852   4.122  0.0520  0.3679 -0.2789
 5806PW      WM22354   1.866  12.079   4.219 -0.3335  0.3493 -0.3168
 5807PW       W22355   2.112  10.567  10.773 -0.1484 -0.3399 -0.3166
 5807PW      WP22356   1.979  10.538  10.740 -0.3335  0.5213 -0.4342
 5807PW      WM22357   2.205  10.670  10.794 -0.4473 -0.1426  0.1118
 5808PW       W22358   6.894   0.570   1.362 -0.0389  0.0283 -0.3688
 5808PW      WP22359   7.033   0.591   1.356 -0.0506  0.1316 -0.2997
 5808PW      WM22360   6.863   0.444   1.414 -0.4180  0.3289  0.1791
 5809PW       W22361   9.959   0.263  12.713  0.3087 -0.2269  0.1016
 5809PW      WP22362   9.827   0.216  12.713  0.3459 -0.3378  0.3086
 5809PW      WM22363   9.976   0.135  12.657 -0.1094  0.0382 -0.7141
 5810PW       W22364   0.257   1.925   2.011  0.4068  0.1756 -0.0896
 5810PW      WP22365   0.123   1.951   1.979  0.4512  0.1220 -0.3304
 5810PW      WM22366   0.307   2.023   2.097  0.2523  0.3223 -0.1638
 5811PW       W22367   3.939   5.345   3.113  0.4811  0.1765 -0.3233
 5811PW      WP22368   4.003   5.350   3.237 -0.4637 -0.2943  0.2401
 5811PW      WM22369   3.862   5.453   3.161  0.3942  0.1494 -0.4000
 5812PW       W22370   8.648   5.035  10.019  0.2587 -0.1615 -0.1187
 5812PW      WP22371   8.746   4.948  10.070  0.5525  0.1168 -0.1939
 5812PW      WM22372   8.547   4.962   9.956  0.3703 -0.1076 -0.3635
 5813PW       W22373   5.247   5.348   4.244  0.0116 -0.1638 -0.0343
 5813PW      WP22374   5.278   5.382   4.111 -0.4197  0.4309 -0.0062
 5813PW      WM22375   5.219   5.249   4.339  0.4311  0.0295  0.3081
 5814PW       W22376   7.788   3.889  12.981 -0.3910  0.1845  0.3030
 5814PW      WP22377   7.666   3.957  12.980 -0.4131  0.1443  0.1441
 5814PW      WM22378   7.702   3.829  13.074 -0.0015 -0.2167  0.4221
 5815PW       W22379  11.215   9.770  11.535 -0.4226  0.1464  0.2048
 5815PW      WP22380  11.250   9.859  11.637  0.4916  0.2987 -0.1882
 5815PW      WM22381  11.089   9.753  11.478 -0.4473  0.3250  0.2044
 5816PW       W22382  11.233   1.905   1.187 -0.0629  0.1860  0.0846
 5816PW      WP22383  11.321   1.796   1.185 -0.1879  0.0816  0.1709
 5816PW      WM22384  11.196   1.995   1.288  0.0320 -0.1683  0.4481
 5817PW       W22385   1.166   7.446   1.058 -0.1495 -0.0942  0.1491
 5817PW      WP22386   1.198   7.439   0.922  0.2115 -0.5064  0.2430
 5817PW      WM22387   1.147   7.312   1.023 -0.1488  0.0507 -0.4783
 5818PW       W22388   5.315   5.457  11.969  0.0209 -0.1322 -0.1585
 5818PW      WP22389   5.402   5.499  12.070  0.1990  0.0028 -0.3639
 5818PW      WM22390   5.379   5.550  11.887 -0.3008  0.2016 -0.0416
 5819PW       W22391   6.767   8.419   4.143  0.7015  0.1825 -0.3576
 5819PW      WP22392   6.820   8.545   4.113 -0.2237  0.7047 -0.0303
 5819PW      WM22393   6.731   8.527   4.062  0.3941  0.6477  0.3466
 5820PW       W22394  10.380  10.702   5.109  0.1004  0.1734 -0.0913
 5820PW      WP22395  10.298  10.814   5.129 -0.1010 -0.0260  0.2474
 5820PW      WM22396  10.416  10.643   5.231 -0.3881 -0.0374 -0.0384
 5821PW       W22397   7.735   7.957  13.378  0.5570  0.3517  0.0325
 5821PW      WP22398   7.607   8.014  13.378  0.3091 -0.1742 -0.1006
 5821PW      WM22399   7.750   7.850  13.290  0.2188  0.0161  0.3643
 5822PW       W22400   0.156   3.687   2.073 -0.1467 -0.4998  0.0796
 5822PW      WP22401   0.082   3.684   2.192 -0.1492 -0.2934  0.0843
 5822PW      WM22402   0.274   3.623   2.115  0.1763  0.0589  0.0770
 5823PW       W22403   5.031  11.371   0.776 -0.0408  0.4541 -0.0552
 5823PW      WP22404   5.155  11.317   0.813 -0.3081 -0.4609 -0.3388
 5823PW      WM22405   4.983  11.245   0.735  0.0596  0.5313 -0.4278
 5824PW       W22406   8.677   6.115   2.655  0.2171  0.1787  0.0725
 5824PW      WP22407   8.613   6.038   2.557 -0.1479  0.2972  0.2109
 5824PW      WM22408   8.815   6.135   2.645  0.1458  0.5513 -0.3280
 5825PW       W22409   1.924   3.785   0.874 -0.1510 -0.5468 -0.3259
 5825PW      WP22410   2.040   3.852   0.832 -0.2016  0.1226  0.4703
 5825PW      WM22411   1.968   3.703   0.979 -0.2775 -0.0948  0.1003
 5826PW       W22412   1.754   5.778  11.051 -0.0425 -0.0076 -0.2156
 5826PW      WP22413   1.847   5.874  11.011 -0.0348  0.0595 -0.0425
 5826PW      WM22414   1.738   5.897  11.123  0.7239  0.1476 -0.2674
 5827PW       W22415  11.639  10.972   2.509 -0.2527 -0.5075 -0.5554
 5827PW      WP22416  11.767  11.025   2.492 -0.2864 -0.2073  0.0227
 5827PW      WM22417  11.583  11.056   2.412 -0.0366  0.1526 -0.1398
 5828PW       W22418   6.934   6.958   0.362 -0.1340  0.2170 -0.1356
 5828PW      WP22419   7.064   7.008   0.375  0.0995 -0.3757  0.0066
 5828PW      WM22420   6.836   6.952   0.263 -0.2480 -0.0918 -0.0112
 5829PW       W22421   4.573   5.870   3.191 -0.1379  0.2372 -0.1744
 5829PW      WP22422   4.474   5.777   3.156  0.1196 -0.1236  0.0222
 5829PW      WM22423   4.673   5.928   3.269 -0.0386  0.0853 -0.1872
 5830PW       W22424   7.472   4.363   1.059  0.0284 -0.0030 -0.4691
 5830PW      WP22425   7.361   4.278   1.060  0.2283 -0.2802 -0.1306
 5830PW      WM22426   7.398   4.380   1.177  0.2287 -0.1009 -0.3257
 5831PW       W22427   1.406   4.870   3.557 -0.0898 -0.0369 -0.1077
 5831PW      WP22428   1.289   4.840   3.485 -0.1228 -0.2023  0.0120
 5831PW      WM22429   1.437   5.006   3.567  0.5583 -0.1675 -0.1326
 5832PW       W22430  11.661   0.465   1.796 -0.2661 -0.2952  0.0989
 5832PW      WP22431  11.585   0.486   1.911 -0.0301 -0.1112  0.2255
 5832PW      WM22432  11.605   0.592   1.813 -0.2118 -0.1380 -0.6972
 5833PW       W22433   9.678   6.004  13.385  0.1338  0.4580 -0.4400
 5833PW      WP22434   9.597   5.910  13.323 -0.2938  0.5578 -0.0587
 5833PW      WM22435   9.734   5.918  13.290  0.0772 -0.0350 -0.0482
 5834PW       W22436   6.790   6.275   9.703 -0.6346  0.0997  0.1257
 5834PW      WP22437   6.814   6.142   9.741 -0.1102 -0.1312 -0.8294
 5834PW      WM22438   6.749   6.335   9.822  0.1544  0.2752  0.3385
 5835PW       W22439   5.055   5.380  11.454 -0.3346  0.2818 -0.0966
 5835PW      WP22440   5.112   5.463  11.552 -0.1702 -0.1221  0.1633
 5835PW      WM22441   5.082   5.400  11.318 -0.0853 -0.3980 -0.1648
 5836PW       W22442   5.391  11.887   3.460 -0.0056  0.1449  0.1086
 5836PW      WP22443   5.329  11.790   3.540 -0.5350  0.0578 -0.3795
 5836PW      WM22444   5.281  11.967   3.492 -0.1779  0.0826 -0.3096
 5837PW       W22445   3.087   6.310  12.275 -0.3083  0.3064  0.0364
 5837PW      WP22446   3.030   6.433  12.240 -0.0292  0.3891 -0.1477
 5837PW      WM22447   3.061   6.175  12.251 -0.1872  0.4191 -0.8970
 5838PW       W22448   7.335   0.449   4.603  0.4609 -0.1332 -0.3251
 5838PW      WP22449   7.322   0.310   4.620 -0.3096 -0.0234  0.2532
 5838PW      WM22450   7.347   0.569   4.532  0.5261 -0.2320 -0.4858
 5839PW       W22451  10.266   5.086  10.388  0.2034  0.0836  0.2753
 5839PW      WP22452  10.353   4.989  10.337  0.1543  0.0948  0.1696
 5839PW      WM22453  10.313   5.218  10.389  0.1021  0.1435 -0.4118
 5840PW       W22454   5.130  12.078   9.390  0.0068 -0.2714  0.0017
 5840PW      WP22455   5.047  12.185   9.425  0.2336 -0.1309  0.1180
 5840PW      WM22456   5.057  12.119   9.279 -0.3432 -0.0475  0.3027
 5841PW       W22457   5.149   1.529   1.707 -0.7366 -0.0814 -0.1597
 5841PW      WP22458   5.128   1.668   1.711  0.2449  0.1089  0.7585
 5841PW      WM22459   5.246   1.429   1.719 -0.3555  0.2527 -0.3552
 5842PW       W22460   1.920   5.853   4.121 -0.0542  0.4249 -0.3352
 5842PW      WP22461   2.048   5.908   4.107  0.3596 -0.3102  0.1727
 5842PW      WM22462   1.900   5.715   4.134  0.1276  0.4363  0.1937
 5843PW       W22463   7.357   7.162   9.202  0.2583  0.2273  0.3505
 5843PW      WP22464   7.301   7.272   9.135  0.0417  0.0560  0.2430
 5843PW      WM22465   7.327   7.114   9.330 -0.1659  0.0402  0.1898
 5844PW       W22466   6.632   3.006   5.019  0.0836 -0.1137 -0.0715
 5844PW      WP22467   6.728   3.035   5.116 -0.0262  0.0254 -0.0029
 5844PW      WM22468   6.630   3.129   4.953  0.0645 -0.0250  0.0917
 5845PW       W22469   3.199   2.067  12.264 -0.2730 -0.1571  0.0266
 5845PW      WP22470   3.302   1.983  12.308  0.1250  0.2311 -0.1187
 5845PW      WM22471   3.106   1.980  12.206 -0.7308  0.0856  0.3675
 5846PW       W22472   3.614   0.585  12.201  0.4402  0.3278  0.4535
 5846PW      WP22473   3.640   0.704  12.132  0.4186  0.0627 -0.0304
 5846PW      WM22474   3.698   0.541  12.099 -0.3075 -0.2012  0.0150
 5847PW       W22475   8.428   7.113  11.601  0.0485  0.2009  0.1172
 5847PW      WP22476   8.403   7.180  11.481 -0.0448 -0.2998 -0.1589
 5847PW      WM22477   8.472   6.988  11.557 -0.1538  0.0888  0.2227
 5848PW       W22478  10.583   9.078   9.339  0.1166  0.2181 -0.1639
 5848PW      WP22479  10.499   9.133   9.436 -0.0868 -0.1256 -0.1382
 5848PW      WM22480  10.565   9.066   9.200  0.1548 -0.0863 -0.1459
 5849PW       W22481   0.830   6.351   9.638 -0.1903 -0.1599 -0.4084
 5849PW      WP22482   0.929   6.447   9.616 -0.2838  0.1776  0.4593
 5849PW      WM22483   0.889   6.308   9.757 -0.3848  0.2212 -0.1630
 5850PW       W22484   6.396   9.719  12.974  0.0128 -0.1555  0.0157
 5850PW      WP22485   6.268   9.665  12.995  0.2101 -0.4735  0.4992
 5850PW      WM22486   6.492   9.802  12.915  0.1140 -0.0888  0.2678
 5851PW       W22487   1.132   3.608   3.630  0.2193  0.0208  0.0711
 5851PW      WP22488   1.188   3.479   3.635  0.2722  0.0478  0.2037
 5851PW      WM22489   1.007   3.588   3.689  0.2846 -0.1494  0.1578
 5852PW       W22490   4.501   8.591   2.552 -0.3076  0.2840 -0.4221
 5852PW      WP22491   4.434   8.714   2.542 -0.4460  0.2375 -0.1206
 5852PW      WM22492   4.522   8.455   2.573 -0.2718  0.3753  0.2416
 5853PW       W22493   0.750   6.039   5.028 -0.0229 -0.3867 -0.1263
 5853PW      WP22494   0.736   6.173   5.068  0.0095 -0.2871 -0.4364
 5853PW      WM22495   0.785   6.098   4.906  0.3952  0.0547  0.1894
 5854PW       W22496   4.865   8.528  11.290 -0.0653 -0.2306  0.3953
 5854PW      WP22497   4.785   8.633  11.335  0.2247  0.2725 -0.1850
 5854PW      WM22498   4.954   8.628  11.329 -0.5645  0.4310 -0.0462
 5855PW       W22499   3.293   7.447  10.894  0.6904 -0.0185 -0.2522
 5855PW      WP22500   3.341   7.416  10.766 -0.2064  0.0583 -0.6499
 5855PW      WM22501   3.287   7.587  10.894 -0.2854 -0.0165  0.1819
 5856PW       W22502   7.849  11.031  12.506 -0.0694  0.2687  0.3134
 5856PW      WP22503   7.754  11.075  12.415 -0.3107  0.1240  0.4886
 5856PW      WM22504   7.783  10.912  12.540  0.1325 -0.0074 -0.2048
 5857PW       W22505   9.108   2.749  10.380 -0.0362  0.0062  0.1809
 5857PW      WP22506   9.174   2.634  10.336 -0.0685  0.0861 -0.0873
 5857PW      WM22507   9.095   2.733  10.518  0.2180 -0.1836  0.1866
 5858PW       W22508   1.268   6.968  11.621  0.1601  0.1305  0.0699
 5858PW      WP22509   1.383   6.892  11.648 -0.0120 -0.0150  0.4438
 5858PW      WM22510   1.298   7.028  11.498  0.3070  0.2172  0.1463
 5859PW       W22511   2.575   3.390  11.549 -0.2553 -0.4174 -0.2964
 5859PW      WP22512   2.587   3.270  11.478  0.2035 -0.5095 -0.0818
 5859PW      WM22513   2.472   3.401  11.644 -0.5129 -0.1315 -0.5972
 5860PW       W22514  11.079   3.201  13.205 -0.5932 -0.5541  0.1574
 5860PW      WP22515  11.153   3.232  13.320 -0.4033 -0.1210 -0.0738
 5860PW      WM22516  11.018   3.294  13.291 -0.1659  0.3025 -0.3941
 5861PW       W22517   2.290  10.757   1.393  0.0918  0.1194 -0.0299
 5861PW      WP22518   2.185  10.780   1.303  0.0759 -0.3719 -0.1540
 5861PW      WM22519   2.338  10.680   1.286  0.4116  0.1591  0.0803
 5862PW       W22520   3.349   1.086   1.645  0.3003  0.5234  0.5435
 5862PW      WP22521   3.451   1.020   1.714  0.3477  0.1517  0.1428
 5862PW      WM22522   3.253   1.044   1.552  0.5249  0.2117  0.4464
 5863PW       W22523  11.933   8.387  10.108 -0.0818  0.2249 -0.3009
 5863PW      WP22524  11.806   8.444  10.098 -0.2299 -0.0149  0.0757
 5863PW      WM22525  12.051   8.348  10.044 -0.0714 -0.1117 -0.0912
 5864PW       W22526   1.451   0.736   9.335 -0.0559 -0.0338  0.3636
 5864PW      WP22527   1.367   0.639   9.280  0.4385 -0.3729  0.1744
 5864PW      WM22528   1.421   0.628   9.419 -0.1726 -0.3073 -0.0165
 5865PW       W22529   0.586   1.928   1.692 -0.3216 -0.0675 -0.0357
 5865PW      WP22530   0.569   2.060   1.648  0.3409  0.0547  0.0133
 5865PW      WM22531   0.664   2.023   1.759 -0.1917  0.0100 -0.2905
 5866PW       W22532   7.355   6.083   1.431 -0.1807  0.3123  0.0139
 5866PW      WP22533   7.341   5.948   1.466  0.1064  0.2610 -0.0494
 5866PW      WM22534   7.450   6.179   1.470  0.7362 -0.3449 -0.3928
 5867PW       W22535   5.920   9.654  10.576 -0.0153 -0.2852 -0.0909
 5867PW      WP22536   5.890   9.610  10.705  0.0734  0.5380  0.2391
 5867PW      WM22537   5.862   9.685  10.453 -0.4817  0.2370  0.2382
 5868PW       W22538  10.819   0.815   3.694  0.4220  0.4204  0.0141
 5868PW      WP22539  10.881   0.784   3.815  0.2579 -0.2301 -0.0479
 5868PW      WM22540  10.921   0.897   3.645  0.2264  0.4506 -0.3666
 5869PW       W22541   4.625   7.629  12.300  0.1349 -0.0110  0.0809
 5869PW      WP22542   4.587   7.516  12.372 -0.2330  0.1735  0.1921
 5869PW      WM22543   4.500   7.692  12.305  0.2432  0.2129  0.0695
 5870PW       W22544   9.534   4.425   3.420  0.1872  0.1379 -0.2385
 5870PW      WP22545   9.426   4.383   3.341 -0.2319  0.0628  0.3451
 5870PW      WM22546   9.429   4.352   3.476  0.2520  0.1983 -0.0355
 5871PW       W22547   1.765   8.395  10.194  0.0153 -0.1439  0.0103
 5871PW      WP22548   1.854   8.287  10.203  0.2573  0.0801  0.5250
 5871PW      WM22549   1.818   8.512  10.249 -0.1558  0.2701 -0.6538
 5872PW       W22550   4.512  11.622   9.528  0.4535 -0.0028 -0.2029
 5872PW      WP22551   4.548  11.578   9.655  0.1249 -0.1778 -0.1660
 5872PW      WM22552   4.433  11.666   9.421  0.2165  0.1906  0.0483
 5873PW       W22553  10.873   4.140   2.320  0.2440  0.1794  0.2128
 5873PW      WP22554  10.777   4.080   2.402  0.1379 -0.1939 -0.1649
 5873PW      WM22555  10.871   4.233   2.425 -0.2004  0.2001  0.1951
 5874PW       W22556   3.304   9.126  12.447 -0.2800  0.7682 -0.0933
 5874PW      WP22557   3.215   9.023  12.415 -0.1008  0.5813  0.0029
 5874PW      WM22558   3.344   9.238  12.522  0.3566  0.4574  0.0619
 5875PW       W22559   2.529   8.896  11.942  0.0881  0.4409  0.2381
 5875PW      WP22560   2.586   8.979  11.845 -0.0649 -0.0624 -0.3118
 5875PW      WM22561   2.663   8.925  11.915  0.2509 -0.3563  0.0480
 5876PW       W22562   5.096  10.421   8.199 -0.0071  0.3171  0.2228
 5876PW      WP22563   4.993  10.329   8.221 -0.1903  0.3497 -0.4073
 5876PW      WM22564   4.998  10.517   8.224 -0.4308 -0.0248 -0.0433
 5877PW       W22565   8.294   1.432  10.119  0.0275 -0.3537 -0.0971
 5877PW      WP22566   8.273   1.294  10.110  0.3059 -0.4065  0.0021
 5877PW      WM22567   8.175   1.473  10.058  0.2119  0.8365  0.2130
 5878PW       W22568   3.902  10.598   5.150  0.2303  0.5586 -0.2707
 5878PW      WP22569   3.778  10.613   5.212  0.0220 -0.3602 -0.3843
 5878PW      WM22570   3.903  10.465   5.105 -0.2676  0.4184  0.0930
 5879PW       W22571   9.455   1.303   0.293  0.2191  0.1615 -0.0506
 5879PW      WP22572   9.524   1.234   0.393  0.1908 -0.0718 -0.1894
 5879PW      WM22573   9.512   1.176   0.280  0.2778  0.1282  0.4464
 5880PW       W22574   7.595  11.465   1.316 -0.0074 -0.3671  0.5555
 5880PW      WP22575   7.700  11.462   1.224 -0.4842 -0.1859 -0.0305
 5880PW      WM22576   7.558  11.568   1.228  0.5208 -0.2366  0.4685
 5881PW       W22577   6.591   5.544   0.489  0.2404 -0.2465 -0.2841
 5881PW      WP22578   6.722   5.498   0.471  0.2192 -0.4276 -0.0162
 5881PW      WM22579   6.534   5.533   0.362  0.0773  0.2211 -0.2601
 5882PW       W22580   9.608   4.691   4.029 -0.2458  0.1313 -0.1461
 5882PW      WP22581   9.580   4.800   4.113  0.1139 -0.0936  0.2852
 5882PW      WM22582   9.568   4.560   4.001 -0.4572  0.1794 -0.0843
 5883PW       W22583   0.862   1.968  12.255  0.1292  0.3823  0.2404
 5883PW      WP22584   0.788   1.874  12.327 -0.4058 -0.1187 -0.8461
 5883PW      WM22585   0.726   2.002  12.260 -0.0055 -0.0519 -0.1516
 5884PW       W22586   3.538   7.043  11.143  0.1197  0.1371  0.3285
 5884PW      WP22587   3.518   6.938  11.234  0.0175  0.3143  0.5135
 5884PW      WM22588   3.401   7.015  11.145  0.0444  0.3717 -0.3313
 5885PW       W22589   3.077  10.053   9.047 -0.1573  0.0623  0.0431
 5885PW      WP22590   3.034  10.138   8.945  0.3280  0.6431  0.2897
 5885PW      WM22591   3.181  10.146   9.055 -0.5106  0.4395  0.5810
 5886PW       W22592   0.594   4.868   2.434 -0.0402 -0.4567 -0.2004
 5886PW      WP22593   0.694   4.794   2.498 -0.1658 -0.0831  0.4805
 5886PW      WM22594   0.645   4.932   2.320  0.2814 -0.0052  0.1811
 5887PW       W22595   4.146   7.234   8.352  0.4940  0.0231  0.0765
 5887PW      WP22596   4.182   7.217   8.486  0.0799 -0.6008  0.1307
 5887PW      WM22597   4.240   7.132   8.373  0.4191  0.0252  0.4717
 5888PW       W22598   9.731   4.276  10.247 -0.4878 -0.1355 -0.0343
 5888PW      WP22599   9.714   4.214  10.123 -0.6624 -0.1430 -0.0075
 5888PW      WM22600   9.669   4.324  10.363 -0.2796  0.1083 -0.0182
 5889PW       W22601   5.369   2.401   4.939 -0.1790  0.1280  0.2351
 5889PW      WP22602   5.431   2.335   5.045 -0.1279 -0.2085  0.0059
 5889PW      WM22603   5.260   2.457   4.871 -0.0705  0.1359  0.0651
 5890PW       W22604   8.787   5.140  12.369 -0.0082  0.1952  0.1405
 5890PW      WP22605   8.803   5.160  12.506  0.5015 -0.2778  0.1678
 5890PW      WM22606   8.648   5.146  12.356 -0.0353  0.0403  0.3369
 5891PW       W22607   6.018   1.350   3.138  0.4893  0.0246 -0.2645
 5891PW      WP22608   6.010   1.474   3.204  0.1134 -0.0266 -0.2023
 5891PW      WM22609   5.982   1.277   3.024  0.4544 -0.2963 -0.0548
 5892PW       W22610   4.439   7.599   0.708  0.3238  0.0204  0.0384
 5892PW      WP22611   4.382   7.572   0.833 -0.7442 -0.1105 -0.4203
 5892PW      WM22612   4.461   7.721   0.773  0.0299  0.2225 -0.2281
 5893PW       W22613   1.772   9.912  11.158  0.1815 -0.1885 -0.1490
 5893PW      WP22614   1.676   9.814  11.185 -0.0575  0.2195  0.6189
 5893PW      WM22615   1.880   9.901  11.246  0.0230 -0.2206  0.0444
 5894PW       W22616   0.859   0.636   3.430  0.1839 -0.2741 -0.7091
 5894PW      WP22617   0.751   0.692   3.359  0.1837  0.0333 -0.4777
 5894PW      WM22618   0.934   0.557   3.517 -0.1459  0.1109 -0.0353
 5895PW       W22619   2.927  11.367   4.531 -0.0603  0.1505  0.2078
 5895PW      WP22620   2.977  11.284   4.633 -0.5891  0.3768  0.6797
 5895PW      WM22621   2.967  11.392   4.400  0.2873 -0.3183  0.2095
 5896PW       W22622   2.649  10.272   2.988  0.3428  0.3713 -0.3382
 5896PW      WP22623   2.658  10.362   3.095  0.1789  0.1241 -0.1107
 5896PW      WM22624   2.617  10.324   2.863 -0.3823  0.1239 -0.2788
 5897PW       W22625  11.704   5.360   2.311  0.7467 -0.5476  0.2855
 5897PW      WP22626  11.714   5.368   2.450  0.0222  0.4276  0.3415
 5897PW      WM22627  11.755   5.484   2.270 -0.5594  0.1989  0.5989
 5898PW       W22628   8.846   1.751   8.980 -0.0327 -0.4322 -0.3333
 5898PW      WP22629   8.936   1.791   8.880  0.2829  0.1393  0.1410
 5898PW      WM22630   8.956   1.727   9.063 -0.2313  0.0046  0.0841
 5899PW       W22631   8.126   4.554   0.274  0.1464  0.4944  0.3923
 5899PW      WP22632   8.013   4.613   0.216  0.0306 -0.1536 -0.1038
 5899PW      WM22633   8.090   4.634   0.165 -0.1227  0.0581  0.1437
 5900PW       W22634   2.642  11.838  10.412 -0.1257 -0.2887 -0.5764
 5900PW      WP22635   2.509  11.881  10.407  0.1008  0.4541 -0.8717
 5900PW      WM22636   2.718  11.941  10.355 -0.1170 -0.0888 -0.2149
 5901PW       W22637   6.523   2.267   8.170  0.2126  0.0481 -0.1193
 5901PW      WP22638   6.470   2.396   8.176  0.0442 -0.0195 -0.1324
 5901PW      WM22639   6.423   2.188   8.228  0.3732 -0.0696  0.0053
 5902PW       W22640   6.194   4.907   3.302  0.0574 -0.0182  0.3118
 5902PW      WP22641   6.092   4.820   3.345 -0.1144  0.0526  0.0545
 5902PW      WM22642   6.327   4.941   3.326  0.0842  0.0511  0.0764
 5903PW       W22643   9.799   5.922   4.399  0.1184 -0.1326  0.2592
 5903PW      WP22644   9.725   5.906   4.282  0.0158  0.3733  0.2429
 5903PW      WM22645   9.832   5.880   4.529  0.1756 -0.5473  0.1162
 5904PW       W22646   8.476   8.207   3.748 -0.1911 -0.5770  0.0965
 5904PW      WP22647   8.498   8.251   3.879 -0.3383  0.0867 -0.0838
 5904PW      WM22648   8.370   8.289   3.708  0.2844 -0.1123 -0.2791
 5905PW       W22649   2.049  12.039  11.662 -0.0621 -0.1746  0.1228
 5905PW      WP22650   2.117  12.147  11.720 -1.0713  0.7038 -0.1750
 5905PW      WM22651   2.086  11.904  11.656 -0.0846 -0.1717 -0.1316
 5906PW       W22652   6.864   6.638   1.957 -0.0723 -0.1460 -0.0127
 5906PW      WP22653   6.881   6.544   2.059 -0.2056 -0.4538 -0.2653
 5906PW      WM22654   6.775   6.624   1.850  0.1922 -0.2885 -0.2199
 5907PW       W22655   9.416   2.942   9.275 -0.0281  0.1534  0.0422
 5907PW      WP22656   9.397   3.081   9.282 -0.2745  0.1338 -0.1628
 5907PW      WM22657   9.505   2.953   9.167  0.3366  0.2094  0.3391
 5908PW       W22658   0.720   3.669   9.063 -0.0442  0.1358 -0.0864
 5908PW      WP22659   0.801   3.615   9.164 -0.1700  0.1960  0.0474
 5908PW      WM22660   0.695   3.710   9.194  0.6936 -0.6120  0.3459
 5909PW       W22661   0.431   5.057   9.086 -0.0428 -0.0625  0.6690
 5909PW      WP22662   0.483   4.933   9.125 -0.3325 -0.2707  0.4150
 5909PW      WM22663   0.296   5.023   9.098 -0.0666 -0.1295  0.2656
 5910PW       W22664   2.009   0.118   9.470  0.2456 -0.0516  0.2815
 5910PW      WP22665   2.013  -0.010   9.413 -0.4637  0.1428 -0.2819
 5910PW      WM22666   1.941   0.130   9.348 -0.1466 -0.3914  0.4544
 5911PW       W22667   8.442   6.173   1.143  0.1235  0.3286  0.0395
 5911PW      WP22668   8.363   6.285   1.171 -0.2050  0.1504 -0.1550
 5911PW      WM22669   8.515   6.077   1.213  0.2808  0.3872 -0.0410
 5912PW       W22670  11.666   2.379   4.842 -0.2539 -0.1574  0.0411
 5912PW      WP22671  11.638   2.417   4.711  0.0096 -0.3382 -0.0738
 5912PW      WM22672  11.646   2.517   4.850 -0.3307 -0.1570 -0.1456
 5913PW       W22673   5.307   0.521  11.646 -0.3332  0.1905 -0.1647
 5913PW      WP22674   5.281   0.423  11.550 -0.9028  0.4073 -0.2473
 5913PW      WM22675   5.419   0.542  11.728 -0.5079  0.2366  0.0652
 5914PW       W22676   6.726   1.385   2.645  0.1391 -0.0526  0.1783
 5914PW      WP22677   6.607   1.451   2.680  0.1594 -0.1342  0.4080
 5914PW      WM22678   6.782   1.491   2.572 -0.2741  0.1351  0.1128
 5915PW       W22679   7.411   8.433   3.043  0.2060  0.0410  0.3453
 5915PW      WP22680   7.532   8.501   3.030  0.2020  0.0266  0.2268
 5915PW      WM22681   7.304   8.516   3.079 -0.2917 -0.0481 -0.7334
 5916PW       W22682   7.204  11.405   2.300  0.2748  0.4654  0.2075
 5916PW      WP22683   7.115  11.414   2.192  0.0937 -0.2053  0.2778
 5916PW      WM22684   7.310  11.328   2.250 -0.0620 -0.2657  0.5334
 5917PW       W22685   3.577  11.402   0.820  0.2574 -0.4072  0.2057
 5917PW      WP22686   3.556  11.266   0.848 -0.2056 -0.3799  0.0263
 5917PW      WM22687   3.649  11.327   0.726  0.1949 -0.1438 -0.0585
 5918PW       W22688   2.025   0.583   2.705  0.2394 -0.0475  0.2121
 5918PW      WP22689   2.069   0.692   2.781 -0.0037  0.4472 -0.3168
 5918PW      WM22690   2.091   0.561   2.584  0.0659 -0.1038  0.1266
 5919PW       W22691   1.127   1.791  12.608 -0.0230 -0.2292  0.3174
 5919PW      WP22692   1.014   1.787  12.526  0.0644  0.4306  0.1318
 5919PW      WM22693   1.258   1.757  12.571 -0.0116 -0.0229  0.1561
 5920PW       W22694  10.324  10.846   3.458  0.0793  0.1307 -0.5162
 5920PW      WP22695  10.427  10.938   3.430 -0.0125  0.4709  0.1507
 5920PW      WM22696  10.185  10.854   3.452  0.0163 -0.0205  0.2317
 5921PW       W22697   5.453   1.459   9.768 -0.3356 -0.1324  0.0650
 5921PW      WP22698   5.587   1.460   9.810 -0.3552 -0.5559  0.1593
 5921PW      WM22699   5.397   1.584   9.740 -0.1817 -0.0571  0.0889
 5922PW       W22700  10.331  11.716   3.911 -0.2678 -0.2674  0.0852
 5922PW      WP22701  10.284  11.846   3.931  0.3632 -0.0473  0.2674
 5922PW      WM22702  10.252  11.602   3.889 -0.2822 -0.1163 -0.8239
 5923PW       W22703   2.548   8.653   0.885  0.1732 -0.4089 -0.3105
 5923PW      WP22704   2.465   8.662   0.773 -0.1381  0.1431 -0.0620
 5923PW      WM22705   2.603   8.700   0.765 -0.3953  0.0197 -0.4253
 5924PW       W22706   8.262   5.340   9.838  0.0318 -0.4151 -0.2060
 5924PW      WP22707   8.222   5.217   9.784 -0.2678 -0.3000 -0.2542
 5924PW      WM22708   8.340   5.456   9.831  0.1054 -0.4437  0.0705
 5925PW       W22709   3.785   8.291  10.331 -0.2767  0.3128  0.0711
 5925PW      WP22710   3.845   8.186  10.401 -0.0310  0.2649 -0.1991
 5925PW      WM22711   3.649   8.297  10.365 -0.3497 -0.1186 -0.1189
 5926PW       W22712   0.745   7.107   0.033  0.4147  0.1203  0.1065
 5926PW      WP22713   0.641   7.177   0.097  0.4175  0.1163  0.1158
 5926PW      WM22714   0.687   7.076  -0.090 -0.0568 -0.5041  0.4517
 5927PW       W22715   9.068   8.460   9.904  0.6393 -0.6379 -0.1629
 5927PW      WP22716   9.075   8.321   9.917  1.0120 -0.5781  0.4672
 5927PW      WM22717   9.169   8.526   9.975  0.1093 -0.4663  0.4805
 5928PW       W22718   6.650   4.062   4.853 -0.2818  0.5517  0.1591
 5928PW      WP22719   6.549   3.995   4.783  0.0900  0.4921 -0.3479
 5928PW      WM22720   6.613   4.170   4.772 -0.1931  0.4700  0.0060
 5929PW       W22721   4.189   4.323  11.409 -0.2156 -0.3586  0.1081
 5929PW      WP22722   4.089   4.410  11.363  0.1728 -0.0330 -0.1609
 5929PW      WM22723   4.211   4.312  11.271 -0.1969  0.2332  0.0482
 5930PW       W22724   3.723  11.372   1.814 -0.0676  0.2668  0.8506
 5930PW      WP22725   3.849  11.323   1.779 -0.2908 -0.0334  0.4271
 5930PW      WM22726   3.695  11.289   1.705  0.5389 -0.0833  0.9366
 5931PW       W22727   6.449   6.599   5.240 -0.0783  0.0386  0.1355
 5931PW      WP22728   6.577   6.614   5.185 -0.2021  0.0443 -0.1608
 5931PW      WM22729   6.389   6.518   5.338 -0.5271 -0.2068 -0.3168
 5932PW       W22730   3.837   5.203   1.308  0.1808  0.0087  0.1706
 5932PW      WP22731   3.887   5.076   1.277 -0.2324 -0.1147 -0.0207
 5932PW      WM22732   3.797   5.337   1.298 -0.0209 -0.0152  0.5686
 5933PW       W22733   1.628   4.675  12.974  0.0213  0.4454  0.2395
 5933PW      WP22734   1.752   4.655  12.912 -0.2444  0.4297 -0.3132
 5933PW      WM22735   1.550   4.754  13.058  0.4425  0.5498  0.5508
 5934PW       W22736   3.135   3.498   0.646 -0.1119 -0.0793 -0.2926
 5934PW      WP22737   3.162   3.543   0.516  0.1189 -0.1029 -0.2558
 5934PW      WM22738   2.995   3.495   0.645 -0.1091 -0.3034 -0.2274
 5935PW       W22739   1.597   8.815   2.808  0.1102  0.0148 -0.1879
 5935PW      WP22740   1.535   8.703   2.751 -0.3816  0.0696  0.2040
 5935PW      WM22741   1.519   8.931   2.799 -0.0447 -0.0463  0.2496
 5936PW       W22742  10.854   9.343  10.276  0.3352  0.5014  0.1098
 5936PW      WP22743  10.983   9.300  10.309  0.3213  0.0423 -0.3555
 5936PW      WM22744  10.818   9.357  10.410  0.1869  0.3005  0.0928
 5937PW       W22745   3.305  10.224   8.537 -0.0029  0.5501  0.0692
 5937PW      WP22746   3.230  10.111   8.573  0.1467  0.5411  0.3615
 5937PW      WM22747   3.339  10.239   8.672  0.4462  0.0860  0.0228
 5938PW       W22748   3.753   3.243   3.718 -0.6802 -0.3674 -0.0473
 5938PW      WP22749   3.815   3.246   3.592 -0.2277 -0.1222  0.1699
 5938PW      WM22750   3.668   3.289   3.820 -0.2695  0.4446 -0.0339
 5939PW       W22751  11.190   4.911   9.734 -0.4012  0.0399 -0.3137
 5939PW      WP22752  11.126   4.834   9.832  0.0680 -0.2955 -0.2544
 5939PW      WM22753  11.198   5.016   9.641  0.3868  0.0448 -0.2690
 5940PW       W22754   5.571   8.291  12.756 -0.3484 -0.0824  0.1385
 5940PW      WP22755   5.511   8.251  12.636 -0.2496  0.2403 -0.0257
 5940PW      WM22756   5.700   8.335  12.787 -0.1303 -0.0184 -0.7251
 5941PW       W22757   6.915  11.248  12.744  0.1112 -0.1669 -0.1254
 5941PW      WP22758   6.982  11.220  12.863  0.6132  0.0910 -0.3330
 5941PW      WM22759   6.919  11.167  12.630 -0.1612 -0.1787 -0.1307
 5942PW       W22760   0.725   4.357   0.854  0.2653 -0.0727  0.0613
 5942PW      WP22761   0.685   4.395   0.726 -0.2688 -0.1655  0.1899
 5942PW      WM22762   0.861   4.328   0.835  0.2162 -0.4754  0.2549
 5943PW       W22763  10.471   6.864   3.229 -0.3898 -0.3059  0.0358
 5943PW      WP22764  10.594   6.835   3.288 -0.2058  0.6071  0.1680
 5943PW      WM22765  10.493   6.948   3.119 -0.0903 -0.3789  0.0350
 5944PW       W22766  11.836  10.096   4.380  0.1954 -0.1899 -0.0360
 5944PW      WP22767  11.952  10.161   4.423  0.1405  0.3388 -0.6256
 5944PW      WM22768  11.714  10.153   4.419  0.2341 -0.0444 -0.1238
 5945PW       W22769  10.339   6.045   0.828 -0.4201 -0.3850  0.0768
 5945PW      WP22770  10.308   6.035   0.692  0.3444 -0.9377 -0.0877
 5945PW      WM22771  10.321   5.909   0.857  0.3816 -0.4571  0.3626
 5946PW       W22772  11.314  10.581  11.820 -0.1281 -0.0199  0.2202
 5946PW      WP22773  11.439  10.639  11.846 -0.1124 -0.0167  0.1404
 5946PW      WM22774  11.411  10.608  11.723 -0.2827 -0.2657 -0.0076
 5947PW       W22775  10.909   7.857  10.569 -0.0206  0.5286 -0.0809
 5947PW      WP22776  10.866   7.919  10.451 -0.4400  0.2836 -0.0690
 5947PW      WM22777  10.781   7.830  10.618  0.2199  0.0419  0.3248
 5948PW       W22778   3.236   6.317  11.765  0.3092  0.3429 -0.1213
 5948PW      WP22779   3.199   6.192  11.715  0.0891  0.6579 -0.8186
 5948PW      WM22780   3.223   6.379  11.640 -0.4252  0.3335 -0.0725
 5949PW       W22781   9.549   1.758   2.141 -0.1980 -0.0276 -0.2287
 5949PW      WP22782   9.658   1.673   2.119 -0.1439 -0.0215 -0.0044
 5949PW      WM22783   9.472   1.770   2.025 -0.0592 -0.0749 -0.3268
 5950PW       W22784  11.887   1.617  12.822 -0.1730  0.2034  0.0656
 5950PW      WP22785  12.023   1.636  12.796 -0.1996  0.4442  0.0941
 5950PW      WM22786  11.765   1.641  12.758  0.0866 -0.1173 -0.6003
 5951PW       W22787   7.965  11.849   1.441 -0.3246 -0.1413  0.4063
 5951PW      WP22788   8.100  11.885   1.426 -0.2567 -0.3907  0.3973
 5951PW      WM22789   7.864  11.896   1.526 -0.4505  0.2371  0.0615
 5952PW       W22790   4.708   7.612  11.365  0.1000 -0.4448  0.1202
 5952PW      WP22791   4.655   7.600  11.236 -0.0043  0.0078  0.1153
 5952PW      WM22792   4.716   7.666  11.494  0.2636 -0.0213 -0.0600
 5953PW       W22793   5.009   1.264   2.190  0.0689 -0.1187 -0.3485
 5953PW      WP22794   5.020   1.213   2.320 -0.4954 -0.0732 -0.2729
 5953PW      WM22795   4.967   1.154   2.113 -0.1963 -0.0251 -0.3431
 5954PW       W22796   8.862   6.539   0.383 -0.0200  0.2159  0.0197
 5954PW      WP22797   8.741   6.491   0.332  0.2984 -0.7198  0.0436
 5954PW      WM22798   8.961   6.628   0.426 -0.2596  0.4052  0.1882
 5955PW       W22799  11.405   9.267   8.779  0.0203 -0.4491 -0.4182
 5955PW      WP22800  11.509   9.352   8.820 -0.1886 -0.2170 -0.3582
 5955PW      WM22801  11.359   9.185   8.883  0.0206 -0.0063 -0.0560
 5956PW       W22802   4.625   8.681   9.907  0.0057 -0.4820 -0.3380
 5956PW      WP22803   4.533   8.785   9.918  0.3218 -0.2109 -0.1607
 5956PW      WM22804   4.706   8.695   9.793  0.4153  0.0461 -0.0069
 5957PW       W22805  10.692   4.415  13.099  0.5979  0.2890  0.4653
 5957PW      WP22806  10.583   4.364  13.171  0.4167 -0.6528 -0.3638
 5957PW      WM22807  10.808   4.418  13.021  0.2904  0.3809 -0.0057
 5958PW       W22808   0.520   4.776   1.255  0.3459 -0.7885  0.4333
 5958PW      WP22809   0.517   4.775   1.115  0.3482  0.0250  0.4057
 5958PW      WM22810   0.501   4.686   1.360 -0.0316 -0.5902  0.5443
 5959PW       W22811   6.887   1.410   9.352 -0.4658  0.1486 -0.2164
 5959PW      WP22812   7.010   1.382   9.291 -0.4756 -0.1757 -0.0992
 5959PW      WM22813   6.891   1.502   9.457 -0.1264  0.2893 -0.3469
 5960PW       W22814   1.945   8.174   9.180  0.0461  0.1062  0.0234
 5960PW      WP22815   1.898   8.084   9.275 -0.4391  0.2412 -0.0743
 5960PW      WM22816   2.064   8.101   9.175 -0.0110  0.0111  0.0477
 5961PW       W22817   3.008   3.780  13.311  0.4403 -0.2563  0.1703
 5961PW      WP22818   3.036   3.793  13.175 -0.2713 -0.1238  0.0203
 5961PW      WM22819   2.897   3.727  13.245 -0.2176  0.4912  0.5900
 5962PW       W22820   6.154   6.276  11.219 -0.5800 -0.0835 -0.1469
 5962PW      WP22821   6.193   6.262  11.085 -0.1343  0.1065 -0.0443
 5962PW      WM22822   6.251   6.296  11.318 -0.4238 -0.3356 -0.2425
 5963PW       W22823   7.946   4.645  10.604  0.1995  0.2084 -0.0132
 5963PW      WP22824   7.979   4.592  10.480  0.0887  0.2007 -0.0404
 5963PW      WM22825   7.849   4.639  10.706  0.5104  0.2553  0.2959
 5964PW       W22826   0.745   8.045  12.325 -0.2512  0.6038 -0.4001
 5964PW      WP22827   0.807   8.164  12.364  0.3762  0.3612 -0.5971
 5964PW      WM22828   0.881   8.017  12.311 -0.2891  0.1655 -0.0179
 5965PW       W22829   5.144   5.922   0.912 -0.1783  0.0511 -0.1240
 5965PW      WP22830   5.082   5.944   1.035 -0.1691 -0.0083 -0.1092
 5965PW      WM22831   5.108   5.820   0.823 -0.4671  0.0478 -0.0103
 5966PW       W22832  11.082   6.845   1.408 -0.1861 -0.0547  0.3437
 5966PW      WP22833  11.143   6.721   1.429  0.0791 -0.0196 -0.1322
 5966PW      WM22834  10.981   6.937   1.378 -0.3018 -0.3542 -0.2594
 5967PW       W22835   5.987   3.270   9.547  0.0280  0.0251 -0.0685
 5967PW      WP22836   6.043   3.304   9.671  0.0190 -0.2142  0.0042
 5967PW      WM22837   6.119   3.224   9.535 -0.1530 -0.4281 -0.4912
 5968PW       W22838   4.111  10.087   2.999  0.0066 -0.1836 -0.2107
 5968PW      WP22839   4.104  10.061   3.136 -0.0772  0.0623 -0.1644
 5968PW      WM22840   4.204   9.991   2.958  0.0718 -0.3184  0.2280
 5969PW       W22841  10.858   1.770   3.978  0.3461 -0.2193  0.1493
 5969PW      WP22842  10.788   1.801   4.095 -0.3948 -0.2381 -0.2594
 5969PW      WM22843  10.814   1.858   3.878  0.0254 -0.0425  0.4348
 5970PW       W22844  10.720   4.667   1.621 -0.1116 -0.0534 -0.0688
 5970PW      WP22845  10.830   4.735   1.676  0.0788 -0.2437 -0.2055
 5970PW      WM22846  10.695   4.724   1.746  0.1384 -0.2761  0.0880
 5971PW       W22847  10.181   8.343   3.628 -0.2562  0.3001  0.1881
 5971PW      WP22848  10.064   8.284   3.581 -0.2769  0.0204  0.5769
 5971PW      WM22849  10.315   8.365   3.593 -0.1420 -0.2183  0.2678
 5972PW       W22850   2.255   1.196   1.029 -0.2843  0.1631 -0.2684
 5972PW      WP22851   2.211   1.289   1.125 -0.6677  0.0051 -0.2804
 5972PW      WM22852   2.336   1.164   1.138 -0.1253  0.3972 -0.3126
 5973PW       W22853   7.484   3.367   2.427 -0.1587 -0.1400 -0.2777
 5973PW      WP22854   7.587   3.284   2.471  0.2488  0.5536  0.1756
 5973PW      WM22855   7.373   3.361   2.342  0.2076  0.1210 -0.8002
 5974PW       W22856   2.823   3.681   0.965 -0.4433  0.0543  0.2292
 5974PW      WP22857   2.825   3.700   0.827  0.2549 -0.0879  0.2020
 5974PW      WM22858   2.955   3.672   1.012 -0.3050  0.2390 -0.1070
 5975PW       W22859   0.403   9.020   8.683  0.2981  0.1790 -0.0823
 5975PW      WP22860   0.470   9.128   8.741  0.1893  0.4553 -0.4502
 5975PW      WM22861   0.268   9.012   8.647  0.2565 -0.0666  0.1096
 5976PW       W22862  10.312   9.713   9.737 -0.1604  0.0737  0.1471
 5976PW      WP22863  10.233   9.737   9.624  0.2399 -0.0719 -0.1732
 5976PW      WM22864  10.442   9.763   9.720 -0.2918  0.4051  0.0770
 5977PW       W22865   3.351   8.542   4.030  0.1704 -0.1417 -0.0118
 5977PW      WP22866   3.213   8.524   4.015  0.1640  0.1145 -0.3145
 5977PW      WM22867   3.364   8.625   4.142  0.1001  0.0602 -0.1497
 5978PW       W22868   1.319   0.359  13.140 -0.3934 -0.0849  0.2923
 5978PW      WP22869   1.337   0.490  13.188  0.6174 -0.1157  0.1035
 5978PW      WM22870   1.354   0.313  13.267 -0.1805 -0.1720  0.2037
 5979PW       W22871   1.010   3.555   0.860  0.1352 -0.3344  0.0422
 5979PW      WP22872   1.116   3.578   0.770  0.1650 -0.1243  0.1261
 5979PW      WM22873   0.938   3.437   0.876 -0.1621 -0.1545  0.0662
 5980PW       W22874   7.649   6.103  10.294 -0.2593  0.6193  0.2790
 5980PW      WP22875   7.568   6.044  10.196  0.2331  0.2025  0.0982
 5980PW      WM22876   7.780   6.109  10.344 -0.2337  0.3580  0.2500
 5981PW       W22877   3.019   5.389   9.149  0.1134  0.0722  0.1260
 5981PW      WP22878   2.905   5.337   9.212  0.3510 -0.0836  0.4432
 5981PW      WM22879   2.972   5.513   9.103 -0.0114 -0.1133 -0.2662
 5982PW       W22880   5.903   0.642   1.828  0.1964  0.1708  0.5147
 5982PW      WP22881   6.005   0.560   1.779 -0.0115  0.1990  0.0078
 5982PW      WM22882   5.829   0.556   1.910 -0.0812 -0.2121 -0.1017
 5983PW       W22883   5.808   6.559   0.616 -0.0823 -0.0603 -0.1737
 5983PW      WP22884   5.883   6.570   0.733 -0.1879  0.4270 -0.1428
 5983PW      WM22885   5.870   6.677   0.575 -0.0597  0.0062  0.0480
 5984PW       W22886   4.587   7.458   3.325 -0.2708 -0.3422  0.2398
 5984PW      WP22887   4.604   7.432   3.189  0.3049  0.2247  0.1805
 5984PW      WM22888   4.626   7.491   3.456  0.3069 -0.4763  0.1170
 5985PW       W22889   6.644   1.777  10.658  0.1734  0.0018  0.2417
 5985PW      WP22890   6.734   1.675  10.693  0.1562 -0.2670 -0.4332
 5985PW      WM22891   6.508   1.758  10.687  0.1235 -0.0595 -0.0222
 5986PW       W22892   7.835   4.886  12.750 -0.0492 -0.1280  0.2479
 5986PW      WP22893   7.913   4.974  12.826  0.1417 -0.0508 -0.0306
 5986PW      WM22894   7.882   4.850  12.623 -0.1042  0.0879  0.1637
 5987PW       W22895   3.779   9.200   2.593  0.3068 -0.1505 -0.5195
 5987PW      WP22896   3.744   9.190   2.457  0.0016  0.1509 -0.4678
 5987PW      WM22897   3.827   9.324   2.548 -0.3248  0.4620  0.3496
 5988PW       W22898  10.561   2.052   8.356  0.1849 -0.1060 -0.0325
 5988PW      WP22899  10.627   2.155   8.289  0.4038 -0.2696 -0.0749
 5988PW      WM22900  10.575   1.953   8.258  0.1727  0.1130 -0.2594
 5989PW       W22901   4.987  11.158   2.293  0.0830 -0.1470 -0.4353
 5989PW      WP22902   4.967  11.110   2.163 -0.4528  0.0371 -0.4339
 5989PW      WM22903   4.900  11.165   2.403  0.0349 -0.1697 -0.4719
 5990PW       W22904  10.023   9.754  11.535  0.1256 -0.0291  0.0022
 5990PW      WP22905  10.151   9.808  11.552  0.1673  0.0033 -0.3549
 5990PW      WM22906  10.042   9.854  11.631 -0.1297  0.0249 -0.0022
 5991PW       W22907   8.636   3.211  12.639  0.2656  0.1739 -0.3060
 5991PW      WP22908   8.686   3.107  12.718  0.1046  0.1509 -0.2334
 5991PW      WM22909   8.616   3.105  12.550 -0.4535  0.1049 -0.0907
 5992PW       W22910  11.256   0.662   1.505  0.0962  0.0235 -0.0713
 5992PW      WP22911  11.223   0.547   1.431  0.1110 -0.1856  0.2392
 5992PW      WM22912  11.301   0.709   1.628  0.2461 -0.4326  0.0592
 5993PW       W22913   8.615   7.338   3.944 -0.6028  0.5295  0.0417
 5993PW      WP22914   8.538   7.233   3.892  0.0927 -0.0076  0.0328
 5993PW      WM22915   8.548   7.255   4.036 -0.4388  0.3667  0.0163
 5994PW       W22916   1.903   8.216   8.679  0.1232 -0.1276  0.2227
 5994PW      WP22917   1.864   8.295   8.788  0.2250 -0.0050  0.1708
 5994PW      WM22918   2.006   8.129   8.718  0.3133 -0.0325 -0.0543
 5995PW       W22919   5.935   9.366   9.199 -0.0833 -0.2660  0.1044
 5995PW      WP22920   5.827   9.423   9.267  0.5517  0.8143  0.3326
 5995PW      WM22921   5.860   9.354   9.081  0.1998  0.4471 -0.1825
 5996PW       W22922   4.047   9.677   3.519  0.3080  0.1011  0.2258
 5996PW      WP22923   3.938   9.728   3.448  0.1498 -0.4234  0.0629
 5996PW      WM22924   4.143   9.763   3.465  0.2234 -0.0062 -0.1048
 5997PW       W22925  10.967   1.821  11.093  0.3522  0.1166  0.4726
 5997PW      WP22926  10.955   1.956  11.060  0.2566  0.0993  0.4371
 5997PW      WM22927  11.046   1.777  10.986  0.0765  0.4917  0.1027
 5998PW       W22928   2.240   2.505   0.875  0.2772  0.4180 -0.2232
 5998PW      WP22929   2.243   2.478   0.738 -0.7087 -0.3276 -0.1539
 5998PW      WM22930   2.268   2.608   0.966  0.0860  0.0819  0.2351
 5999PW       W22931   7.141   4.847  12.753 -0.1346  0.1121  0.3717
 5999PW      WP22932   7.091   4.755  12.660  0.4189 -0.0091  0.1780
 5999PW      WM22933   7.026   4.890  12.820 -0.1562  0.3873  0.1708
 6000PW       W22934   9.212   2.879   0.551  0.1807 -0.3498 -0.2444
 6000PW      WP22935   9.325   2.914   0.475  0.1289 -0.5792 -0.4326
 6000PW      WM22936   9.176   2.990   0.629 -0.1919 -0.2242 -0.5755
 6001PW       W22937   8.553  10.267   9.104  0.8821  0.0757  0.6211
 6001PW      WP22938   8.609  10.167   9.022 -0.4532 -0.6658  0.4631
 6001PW      WM22939   8.455  10.333   9.178 -0.0966 -0.3385 -0.1813
 6002PW       W22940  10.756  11.831   4.374 -0.0594 -0.1094 -0.3079
 6002PW      WP22941  10.785  11.859   4.508  0.2052  0.2309 -0.4252
 6002PW      WM22942  10.776  11.896   4.251 -0.0212  0.2976 -0.0937
 6003PW       W22943   4.912   7.370   8.055 -0.0268  0.2480  0.0554
 6003PW      WP22944   5.002   7.276   8.106 -0.2527 -0.0651 -0.1072
 6003PW      WM22945   4.789   7.350   8.118 -0.2304 -0.0925 -0.4199
 6004PW       W22946   9.193   8.963  10.532 -0.0353 -0.0862  0.1453
 6004PW      WP22947   9.278   8.865  10.481 -0.2023 -0.0298 -0.2636
 6004PW      WM22948   9.175   9.100  10.558  0.1383 -0.0390  0.0206
 6005PW       W22949  11.360   3.877  11.671 -0.1456  0.2783  0.5888
 6005PW      WP22950  11.432   3.858  11.790  0.4330 -0.6690  0.1462
 6005PW      WM22951  11.440   3.984  11.627 -0.4075  0.0906 -0.4862
 6006PW       W22952   5.202   8.132   4.629  0.0282  0.1978 -0.1888
 6006PW      WP22953   5.307   8.134   4.722  0.2464  0.4216 -0.4292
 6006PW      WM22954   5.239   8.069   4.509  0.2691  0.0520 -0.0434
 6007PW       W22955   5.266   7.771  10.042 -0.0814 -0.3607 -0.0587
 6007PW      WP22956   5.181   7.875  10.083  0.0885 -0.1354 -0.2657
 6007PW      WM22957   5.287   7.834   9.919 -0.1591 -0.0938  0.0621
 6008PW       W22958   8.592   9.260   8.954  0.0956 -0.5584 -0.3895
 6008PW      WP22959   8.706   9.196   9.002  0.1946  0.0272  0.2273
 6008PW      WM22960   8.498   9.299   8.857 -0.3018 -0.0839  0.1510
 6009PW       W22961   3.269   0.581  11.459  0.2876  0.1615  0.1747
 6009PW      WP22962   3.256   0.550  11.323 -0.0859  0.2326  0.1898
 6009PW      WM22963   3.321   0.526  11.577 -0.1696 -0.2441  0.2018
 6010PW       W22964   0.860   3.722  10.986  0.5081  0.1752 -0.0396
 6010PW      WP22965   0.858   3.859  11.017 -0.1198  0.1315  0.1794
 6010PW      WM22966   0.917   3.645  11.088  0.4840 -0.0716 -0.2071
 6011PW       W22967   6.192   9.054   8.363  0.1400  0.0388 -0.0269
 6011PW      WP22968   6.140   9.023   8.489  0.3493  0.0543  0.0649
 6011PW      WM22969   6.270   8.947   8.316 -0.1048 -0.2843  0.2732
 6012PW       W22970   5.554  10.413  10.448 -0.1845 -0.4763  0.4258
 6012PW      WP22971   5.494  10.350  10.339 -0.0742 -0.0041  0.0745
 6012PW      WM22972   5.479  10.468  10.553 -0.0448  0.5166  0.0672
 6013PW       W22973  10.419   7.067  12.224  0.2558 -0.3604  0.5666
 6013PW      WP22974  10.509   7.158  12.166  0.2305 -0.5147  0.2753
 6013PW      WM22975  10.295   7.133  12.230  0.6465  0.5006  0.0732
 6014PW       W22976   6.451   0.566   4.150  0.0436 -0.1076 -0.2802
 6014PW      WP22977   6.324   0.606   4.107 -0.1944 -0.1289  0.3491
 6014PW      WM22978   6.356   0.666   4.175 -0.5114 -0.7246  0.2784
 6015PW       W22979   6.049   8.417   4.537  0.3687 -0.1115 -0.1796
 6015PW      WP22980   6.129   8.385   4.648 -0.2795 -0.4751  0.2100
 6015PW      WM22981   5.936   8.345   4.499  0.1247  0.0877  0.1406
 6016PW       W22982   0.936  11.956  10.921  0.3263  0.1313 -0.1530
 6016PW      WP22983   0.995  11.858  10.840  0.0019 -0.3731  0.1943
 6016PW      WM22984   0.799  11.952  10.945  0.2439 -0.0094 -0.5859
 6017PW       W22985   7.986   3.742   0.087 -0.1287 -0.0337  0.0621
 6017PW      WP22986   8.033   3.684   0.206 -0.3647  0.1667  0.2576
 6017PW      WM22987   8.122   3.772   0.107 -0.0890 -0.1636 -0.0092
 6018PW       W22988   9.384   2.224   8.589 -0.0965  0.0330 -0.3135
 6018PW      WP22989   9.281   2.293   8.654  0.0974 -0.2459  0.3288
 6018PW      WM22990   9.450   2.103   8.613 -0.0934  0.0411 -0.2816
 6019PW       W22991   6.266   8.623   1.270 -0.2111 -0.2493  0.1708
 6019PW      WP22992   6.376   8.582   1.346  0.1270  0.1528 -0.0819
 6019PW      WM22993   6.231   8.687   1.151 -0.3030 -0.0309  0.3131
 6020PW       W22994   9.397   0.333   9.086  0.0147  0.3519  0.1224
 6020PW      WP22995   9.366   0.288   8.957 -0.1006 -0.7314  0.4747
 6020PW      WM22996   9.527   0.325   9.139  0.0417 -0.2150 -0.0032
 6021PW       W22997   1.999   3.143  10.371 -0.6759  0.0933 -0.3097
 6021PW      WP22998   1.986   3.014  10.319 -0.0263 -0.2069  0.1941
 6021PW      WM22999   2.073   3.182  10.259 -0.2210 -0.2005 -0.1276
 6022PW       W23000   3.120   6.259   1.629  0.2812 -0.0054 -0.3258
 6022PW      WP23001   3.030   6.254   1.522 -0.3732  0.0204  0.1905
 6022PW      WM23002   3.091   6.129   1.673 -0.2781  0.1142 -0.3117
 6023PW       W23003   1.857  11.504  10.096  0.0920 -0.4760  0.0733
 6023PW      WP23004   1.814  11.374  10.068  0.4143 -0.6222  0.2292
 6023PW      WM23005   1.786  11.517   9.976 -0.3284 -0.1707  0.3393
 6024PW       W23006   8.321   4.266   1.982  0.4141  0.0969  0.1480
 6024PW      WP23007   8.281   4.144   1.927 -0.0674  0.2021  0.2436
 6024PW      WM23008   8.290   4.400   1.956  0.4648  0.1427  0.3126
 6025PW       W23009   4.211  11.234   3.674  0.0959  0.1142  0.0913
 6025PW      WP23010   4.133  11.291   3.775 -0.6691 -0.1567 -0.3053
 6025PW      WM23011   4.211  11.356   3.605  0.0166  0.1095  0.0815
 6026PW       W23012   1.572   5.829   2.472  0.2417 -0.1262  0.4518
 6026PW      WP23013   1.483   5.868   2.572  0.2760 -0.1073  0.4751
 6026PW      WM23014   1.704   5.865   2.504  0.3053  0.2003 -0.1038
 6027PW       W23015   6.722  11.404   3.158  0.0537 -0.5585 -0.0898
 6027PW      WP23016   6.625  11.460   3.074 -0.1110 -0.0297  0.4213
 6027PW      WM23017   6.656  11.494   3.243  0.1912 -0.5291 -0.0120
 6028PW       W23018   5.125   5.516  12.946  0.4388 -0.2982 -0.0027
 6028PW      WP23019   5.151   5.610  12.845 -0.1913 -0.2516 -0.1445
 6028PW      WM23020   5.015   5.561  13.019  0.5417  0.7653 -0.4066
 6029PW       W23021   6.945   4.388  12.612 -0.1024  0.2237  0.0448
 6029PW      WP23022   7.015   4.431  12.498  0.2738  0.1718  0.2476
 6029PW      WM23023   7.059   4.466  12.638 -0.0336  0.2152 -0.2150
 6030PW       W23024   5.025   4.244   9.223  0.2023  0.0251  0.0625
 6030PW      WP23025   4.970   4.175   9.331  0.1867 -0.1115 -0.0310
 6030PW      WM23026   5.112   4.332   9.157  0.0263 -0.0544 -0.2893
 6031PW       W23027   3.654   7.360  12.914  0.0643  0.2189 -0.0776
 6031PW      WP23028   3.559   7.450  12.962 -0.2224 -0.1838  0.1410
 6031PW      WM23029   3.727   7.257  12.977 -0.2255  0.1053  0.0830
 6032PW       W23030   1.268  11.503  12.597  0.4908  0.2612 -0.1164
 6032PW      WP23031   1.285  11.471  12.462 -0.1782 -0.1140 -0.1345
 6032PW      WM23032   1.242  11.371  12.638  0.0560  0.1591 -0.6551
 6033PW       W23033   7.209   3.492  10.684  0.1364  0.1923  0.0620
 6033PW      WP23034   7.192   3.473  10.546 -0.2434  0.0648  0.1210
 6033PW      WM23035   7.121   3.570  10.759 -0.0311 -0.2077  0.2948
 6034PW       W23036  11.237   7.353  12.702  0.2627 -0.5191 -0.2367
 6034PW      WP23037  11.364   7.334  12.757  0.4307 -0.4580 -0.5889
 6034PW      WM23038  11.224   7.313  12.568  0.4884 -0.4067 -0.2943
 6035PW       W23039   1.457   9.123  -0.028 -0.5473  0.0056 -0.1638
 6035PW      WP23040   1.499   9.151   0.102  0.0245 -0.4793 -0.2227
 6035PW      WM23041   1.471   8.985  -0.006 -1.0759 -0.0010  0.2553
 6036PW       W23042   8.675   4.130   2.495  0.6953 -0.0340  0.6666
 6036PW      WP23043   8.725   4.000   2.507  0.6801 -0.0360  0.7097
 6036PW      WM23044   8.747   4.238   2.441  0.1933  0.0803  0.1799
 6037PW       W23045   5.924   7.024   0.491 -0.0972 -0.1477  0.2646
 6037PW      WP23046   5.986   6.899   0.493 -0.0927 -0.1545 -0.0468
 6037PW      WM23047   5.940   7.071   0.360 -0.1389 -0.4341  0.1535
 6038PW       W23048   9.577   3.613   4.116  0.4365 -0.0604  0.3913
 6038PW      WP23049   9.447   3.563   4.107  0.3823  0.1508 -0.4305
 6038PW      WM23050   9.552   3.750   4.103 -0.0954 -0.1863 -0.1063
 6039PW       W23051  11.313   0.171   1.491 -0.1848 -0.4546  0.4073
 6039PW      WP23052  11.330   0.042   1.439  0.0713 -0.1698 -0.2748
 6039PW      WM23053  11.207   0.226   1.563  0.0395  0.1167  0.3263
 6040PW       W23054   8.350   9.562   0.621  0.2295 -0.0678  0.3681
 6040PW      WP23055   8.336   9.700   0.599  0.6301  0.0190  0.6096
 6040PW      WM23056   8.462   9.509   0.686  0.4159 -0.0707  0.0535
 6041PW       W23057   3.715   7.737   9.794 -0.0687  0.1853 -0.1976
 6041PW      WP23058   3.752   7.801   9.913 -0.5302 -0.0700  0.0989
 6041PW      WM23059   3.789   7.618   9.797 -0.1892  0.1135  0.0874
 6042PW       W23060   0.778   1.226   4.279  0.3294  0.2541 -0.5826
 6042PW      WP23061   0.754   1.090   4.255  0.3189  0.1626 -0.1119
 6042PW      WM23062   0.642   1.253   4.265  0.0097 -0.8810 -0.1851
 6043PW       W23063   6.083  11.047   0.926 -0.3261 -0.0298  0.4365
 6043PW      WP23064   5.999  11.048   0.814 -0.2132 -0.0907  0.3504
 6043PW      WM23065   6.133  10.925   0.881  0.5284  0.2601  0.5113
 6044PW       W23066   4.655   7.248   9.168 -0.1644 -0.0802 -0.0036
 6044PW      WP23067   4.553   7.184   9.097 -0.4821  0.4646 -0.0647
 6044PW      WM23068   4.635   7.361   9.247  0.2061 -0.0317  0.0313
 6045PW       W23069   5.720   4.470  12.248  0.1112 -0.0525 -0.0836
 6045PW      WP23070   5.742   4.365  12.337  0.3673 -0.4024 -0.5356
 6045PW      WM23071   5.767   4.512  12.123  0.3564  0.2074  0.0918
 6046PW       W23072   1.577   9.837   0.804 -0.2258 -0.1395 -0.0926
 6046PW      WP23073   1.673   9.884   0.894  0.1171 -0.0535 -0.4838
 6046PW      WM23074   1.705   9.789   0.775 -0.1941 -0.2821  0.2659
 6047PW       W23075   8.701   2.925   0.436  0.3009 -0.5086 -0.0205
 6047PW      WP23076   8.708   2.800   0.500  0.6715 -0.5780 -0.1830
 6047PW      WM23077   8.750   3.055   0.454 -0.6418 -0.1373  0.1540
 6048PW       W23078   4.527   9.925   8.196  0.0716 -0.0026 -0.2020
 6048PW      WP23079   4.589   9.865   8.307 -0.2819  0.0874  0.0546
 6048PW      WM23080   4.394   9.907   8.157 -0.1573 -0.1088  0.5433
 6049PW       W23081   8.857   2.074   3.006  0.0510 -0.1560 -0.0222
 6049PW      WP23082   8.794   1.980   3.087  0.0611  0.1539  0.3567
 6049PW      WM23083   8.887   2.165   2.904 -0.2111 -0.3080 -0.2444
 6050PW       W23084   2.295  10.264   1.147 -0.0050  0.0878  0.0480
 6050PW      WP23085   2.307  10.255   1.008 -0.3925  0.2223  0.0003
 6050PW      WM23086   2.426  10.216   1.134 -0.2043 -0.5181  0.1305
 6051PW       W23087   5.204   3.137  11.320  0.2514 -0.4620  0.1590
 6051PW      WP23088   5.132   3.219  11.233 -0.2697 -0.5879  0.4527
 6051PW      WM23089   5.340   3.120  11.290  0.4476  0.2493  0.5321
 6052PW       W23090   1.629   0.439   2.403  0.0270 -0.3287 -0.1676
 6052PW      WP23091   1.564   0.512   2.504  0.0179 -0.4357 -0.0954
 6052PW      WM23092   1.638   0.464   2.266 -0.6174 -0.3236 -0.2228
 6053PW       W23093  -0.016  10.962  12.029  0.2496  0.3005  0.0661
 6053PW      WP23094   0.100  10.972  11.951  0.2466  0.3743  0.0710
 6053PW      WM23095  -0.008  10.961  12.169 -0.9870 -0.0626  0.1931
 6054PW       W23096   0.293   5.532   0.363  0.1871  0.2067 -0.1092
 6054PW      WP23097   0.251   5.638   0.281 -0.2889 -0.0248 -0.1842
 6054PW      WM23098   0.401   5.452   0.400  0.1513  0.2639  0.1278
 6055PW       W23099   7.778   3.367  13.014 -0.2952 -0.1245 -0.2281
 6055PW      WP23100   7.916   3.381  13.029 -0.2667 -0.8625  0.6431
 6055PW      WM23101   7.774   3.274  12.909 -0.4316 -0.2624 -0.1035
 6056PW       W23102   4.109   6.596   4.847  0.0307 -0.3310 -0.4266
 6056PW      WP23103   4.157   6.679   4.948  0.0816 -0.6925 -0.1457
 6056PW      WM23104   4.204   6.494   4.832  0.0064 -0.4950  0.3628
 6057PW       W23105   7.877   8.114   1.236  0.2655  0.4234 -0.3753
 6057PW      WP23106   7.751   8.163   1.274 -0.0495 -0.6260  0.1291
 6057PW      WM23107   7.984   8.100   1.325 -0.2198  0.0147  0.1834
 6058PW       W23108   1.443   2.178   3.743 -0.2365 -0.0558 -0.1085
 6058PW      WP23109   1.502   2.119   3.630  0.3334 -0.2167  0.2494
 6058PW      WM23110   1.344   2.189   3.842 -0.3646 -0.0134 -0.2401
 6059PW       W23111   4.704   8.226   9.810 -0.1401  0.1128  0.1351
 6059PW      WP23112   4.566   8.223   9.834 -0.2374  0.5996 -0.2670
 6059PW      WM23113   4.707   8.092   9.769 -0.1195  0.0270  0.4068
 6060PW       W23114   6.996   1.042   8.699  0.0861  0.3218  0.2325
 6060PW      WP23115   6.869   0.997   8.738 -0.0593  0.1159 -0.4116
 6060PW      WM23116   7.130   1.047   8.740  0.0318  0.7623  0.3790
 6061PW       W23117   3.006   9.594   1.060  0.2677  0.1789  0.0168
 6061PW      WP23118   2.953   9.715   1.013 -0.3601  0.1211  0.5118
 6061PW      WM23119   2.909   9.562   1.156  0.1943  0.1612 -0.0624
 6062PW       W23120   6.533  11.058   2.787 -0.0596 -0.0311 -0.0270
 6062PW      WP23121   6.475  11.140   2.885  0.2548  0.0453  0.1020
 6062PW      WM23122   6.584  10.952   2.863  0.1237  0.2715  0.2921
 6063PW       W23123   5.689  11.998   9.311 -0.1271  0.2430  0.0019
 6063PW      WP23124   5.739  11.889   9.384 -0.0222  0.2468 -0.0637
 6063PW      WM23125   5.643  12.036   9.184 -0.1536  0.4662  0.0761
 6064PW       W23126   3.212  11.599  12.177 -0.0434  0.1909 -0.0080
 6064PW      WP23127   3.139  11.701  12.115 -0.2332 -0.1483 -0.3595
 6064PW      WM23128   3.143  11.495  12.114 -0.1433  0.2606 -0.0150
 6065PW       W23129   5.095   3.123   3.370  0.0863  0.3104 -0.1948
 6065PW      WP23130   5.079   3.198   3.487  0.0105  0.4313 -0.2822
 6065PW      WM23131   5.181   3.013   3.377 -0.4252 -0.1237 -0.3656
 6066PW       W23132   6.062   3.166  11.316 -0.2597 -0.1137  0.1474
 6066PW      WP23133   6.069   3.102  11.440  0.0490  0.0315  0.2116
 6066PW      WM23134   6.065   3.255  11.207 -0.2014  0.4846  0.6142
 6067PW       W23135   8.782   8.878  12.394  0.1148 -0.2038 -0.2137
 6067PW      WP23136   8.734   8.938  12.511 -0.2343 -0.1883 -0.3572
 6067PW      WM23137   8.724   8.791  12.301  0.1758 -0.2726 -0.1874
 6068PW       W23138   7.257   0.489   3.229  0.2093  0.1696 -0.6953
 6068PW      WP23139   7.249   0.350   3.218 -0.4980  0.0028  0.7251
 6068PW      WM23140   7.390   0.524   3.204  0.3954  0.0455  0.0087
 6069PW       W23141   6.484   8.562  12.438 -0.0117 -0.3155 -0.0050
 6069PW      WP23142   6.419   8.671  12.498  0.3230  0.0799 -0.3277
 6069PW      WM23143   6.382   8.517  12.354  0.2176  0.2074 -0.6077
 6070PW       W23144   0.271  10.520   2.341 -0.1679 -0.3185  0.4394
 6070PW      WP23145   0.267  10.384   2.370  0.4685 -0.4806 -0.0951
 6070PW      WM23146   0.191  10.634   2.357  0.0463 -0.1829  0.5745
 6071PW       W23147   4.682  11.685   1.627  0.3561  0.3486 -0.2959
 6071PW      WP23148   4.775  11.595   1.574  0.5759  0.1603  0.3526
 6071PW      WM23149   4.545  11.677   1.600  0.3051 -0.0607  0.0209
 6072PW       W23150   9.965  11.317   0.740  0.1135 -0.3107  0.1523
 6072PW      WP23151  10.100  11.346   0.764  0.0701  0.2875 -0.2234
 6072PW      WM23152   9.837  11.298   0.795  0.0539  0.3781  0.3067
 6073PW       W23153   7.674   4.110   5.118 -0.0408  0.4804  0.2111
 6073PW      WP23154   7.613   4.051   5.230  0.0947 -0.2756 -0.0883
 6073PW      WM23155   7.654   4.168   5.244  0.1141 -0.2414  0.5929
 6074PW       W23156  10.471   0.475   3.533 -0.2325  0.1227 -0.1046
 6074PW      WP23157  10.481   0.501   3.396  0.3150 -0.2754 -0.1560
 6074PW      WM23158  10.587   0.524   3.594 -0.1220 -0.0747 -0.1521
 6075PW       W23159   9.414   2.793  12.292 -0.2366  0.0523  0.2568
 6075PW      WP23160   9.526   2.739  12.355 -0.1783 -0.3003 -0.1289
 6075PW      WM23161   9.340   2.874  12.380 -0.2002  0.2783  0.0845
 6076PW       W23162   6.403   7.604   8.663 -0.4609 -0.0257  0.2598
 6076PW      WP23163   6.521   7.647   8.600 -0.3049 -0.3710  0.3020
 6076PW      WM23164   6.346   7.526   8.562  0.0624  0.1853 -0.2263
 6077PW       W23165  10.357   1.656   3.926 -0.3886 -0.2805 -0.0519
 6077PW      WP23166  10.348   1.666   4.065 -0.0122 -0.0006 -0.0394
 6077PW      WM23167  10.447   1.559   3.974 -0.2131  0.0608  0.3415
 6078PW       W23168   2.875   4.752   8.260 -0.2858  0.0444 -0.0862
 6078PW      WP23169   2.934   4.792   8.380 -0.0112 -0.0075 -0.1987
 6078PW      WM23170   2.951   4.855   8.203  0.1592 -0.2639 -0.0819
 6079PW       W23171   4.836  10.561   3.392  0.2296  0.1995  0.3860
 6079PW      WP23172   4.788  10.526   3.519 -0.1292 -0.4331  0.1007
 6079PW      WM23173   4.844  10.693   3.346 -0.2122  0.2705  0.4897
 6080PW       W23174   9.184   9.192  11.574 -0.2231 -0.2532  0.5006
 6080PW      WP23175   9.209   9.300  11.659 -0.0057  0.0540  0.0644
 6080PW      WM23176   9.244   9.086  11.644  0.4594 -0.3148 -0.1203
 6081PW       W23177   4.044   2.842  12.219 -0.1857 -0.2023  0.2219
 6081PW      WP23178   4.135   2.748  12.168  0.2815  0.2912  0.1010
 6081PW      WM23179   3.925   2.772  12.242 -0.5503  0.2775 -0.1108
 6082PW       W23180  12.005  11.208   3.267  0.0430 -0.1380 -0.1475
 6082PW      WP23181  12.012  11.200   3.406 -0.3529  0.2283 -0.0969
 6082PW      WM23182  12.123  11.283   3.256 -0.1383  0.1026 -0.6077
 6083PW       W23183   4.150   9.260   4.012 -0.0007 -0.1231  0.2225
 6083PW      WP23184   4.236   9.181   3.934  0.4621  0.3128  0.2673
 6083PW      WM23185   4.278   9.317   4.007 -0.0522 -0.0189 -0.5658
 6084PW       W23186   4.804   5.641   9.712  0.0469 -0.2089  0.2252
 6084PW      WP23187   4.941   5.619   9.731  0.1294 -0.1134 -0.2140
 6084PW      WM23188   4.841   5.562   9.603 -0.6500 -0.3819  0.0890
 6085PW       W23189   4.724   2.193   2.463 -0.3203  0.2826 -0.1857
 6085PW      WP23190   4.812   2.212   2.356  0.4264  0.0337  0.3435
 6085PW      WM23191   4.666   2.096   2.545  0.1174 -0.1260 -0.3337
 6086PW       W23192   1.453   1.287  10.584 -0.1107 -0.0014 -0.1377
 6086PW      WP23193   1.360   1.201  10.644  0.0943 -0.3273 -0.2707
 6086PW      WM23194   1.583   1.243  10.556  0.0117  0.0954  0.2477
 6087PW       W23195   9.454   0.657   3.986 -0.2361 -0.2903  0.1139
 6087PW      WP23196   9.475   0.765   4.072 -0.1665 -0.0885 -0.1500
 6087PW      WM23197   9.510   0.542   4.042  0.0626 -0.4484 -0.4664
 6088PW       W23198   3.453   0.704   1.351  0.0119 -0.0047 -0.1743
 6088PW      WP23199   3.572   0.637   1.384 -0.0515  0.0269  0.1411
 6088PW      WM23200   3.410   0.606   1.262  0.0943 -0.4238  0.2285
 6089PW       W23201   2.411   1.167  13.248 -0.0994 -0.2790 -0.2130
 6089PW      WP23202   2.401   1.053  13.328  0.1506 -0.3098 -0.2210
 6089PW      WM23203   2.377   1.249  13.140 -0.0343 -0.0139 -0.0362
 6090PW       W23204  11.031  11.594   0.893  0.3471  0.1233 -0.1037
 6090PW      WP23205  10.955  11.592   0.776  0.2943 -0.4004 -0.0731
 6090PW      WM23206  11.094  11.635   1.011  0.2027 -0.0101  0.0220
 6091PW       W23207   9.765  11.246   8.557  0.5151 -0.4065 -0.0167
 6091PW      WP23208   9.692  11.196   8.448 -0.1677  0.0943  0.1736
 6091PW      WM23209   9.867  11.269   8.464 -0.0178  0.2696 -0.4832
 6092PW       W23210   1.383   5.961   8.367 -0.0139 -0.2819  0.3276
 6092PW      WP23211   1.351   5.985   8.501 -0.1305 -0.2775  0.2993
 6092PW      WM23212   1.275   5.873   8.352 -0.0012 -0.2359 -0.1047
 6093PW       W23213   6.430   9.202   5.055 -0.2225 -0.4758 -0.1308
 6093PW      WP23214   6.460   9.152   4.928 -0.3093  0.4340 -0.5443
 6093PW      WM23215   6.460   9.073   5.101  0.1626 -0.4952 -0.4096
 6094PW       W23216   7.257   0.878   2.361  0.0028 -0.0483 -0.2093
 6094PW      WP23217   7.339   0.932   2.261  0.0076  0.3650  0.0040
 6094PW      WM23218   7.199   0.754   2.331  0.1434 -0.1638 -0.0121
 6095PW       W23219   8.567   3.195   4.091 -0.3701  0.2046  0.4349
 6095PW      WP23220   8.603   3.189   4.226 -0.2523 -0.2623  0.3914
 6095PW      WM23221   8.676   3.283   4.091  0.1953 -0.4288 -0.2502
 6096PW       W23222   7.264  11.369   4.780  0.2286  0.0058  0.2990
 6096PW      WP23223   7.141  11.366   4.846  0.2591  0.2858  0.3764
 6096PW      WM23224   7.384  11.436   4.807  0.3169  0.0920 -0.2543
 6097PW       W23225   4.873   9.689  10.808  0.3935  0.3918  0.3391
 6097PW      WP23226   4.828   9.701  10.676 -0.1996 -0.1209  0.4705
 6097PW      WM23227   4.777   9.696  10.910  0.0140  0.4762 -0.0097
 6098PW       W23228   0.905   6.847   9.569 -0.4811  0.1437  0.1869
 6098PW      WP23229   0.856   6.878   9.696 -0.6091  0.8680 -0.0172
 6098PW      WM23230   0.879   6.970   9.508  0.0698  0.2933  0.2258
 6099PW       W23231   4.764   5.329   2.098 -0.2162 -0.1118 -0.4989
 6099PW      WP23232   4.677   5.329   1.988 -0.0187  0.1819 -0.6615
 6099PW      WM23233   4.799   5.223   2.183  0.7256  0.1783 -0.4713
 6100PW       W23234   3.617   4.286   0.536  0.2504  0.0521  0.6902
 6100PW      WP23235   3.523   4.368   0.471  0.3919 -0.1957  0.1384
 6100PW      WM23236   3.698   4.396   0.564  0.3144  0.2141 -0.0263
 6101PW       W23237   1.334   1.927   5.296 -0.1771 -0.0494 -0.1341
 6101PW      WP23238   1.423   2.028   5.259 -0.3601  0.3437  0.4304
 6101PW      WM23239   1.333   1.815   5.212  0.2849 -0.1495 -0.0193
 6102PW       W23240  10.147   7.510   3.878 -0.0781 -0.1715 -0.1679
 6102PW      WP23241  10.150   7.642   3.925  0.5767 -0.1379 -0.2539
 6102PW      WM23242  10.255   7.444   3.939 -0.2293 -0.3331 -0.0707
 6103PW       W23243   6.828  11.230   1.501 -0.2155  0.1097 -0.1094
 6103PW      WP23244   6.960  11.228   1.455 -0.0586  0.1457  0.3182
 6103PW      WM23245   6.698  11.242   1.450 -0.2699  0.1497  0.0342
 6104PW       W23246   8.143   2.843  10.507  0.1230  0.4247  0.2004
 6104PW      WP23247   8.071   2.929  10.423  0.0346 -0.1330 -0.3312
 6104PW      WM23248   8.206   2.845  10.632 -0.0602  1.1671  0.3027
 6105PW       W23249   9.383   5.497   4.447  0.0413 -0.2013 -0.4339
 6105PW      WP23250   9.421   5.379   4.514  0.2181 -0.0497 -0.2589
 6105PW      WM23251   9.328   5.590   4.358  0.0450 -0.0679 -0.2986
 6106PW       W23252   4.687  10.775  10.279 -0.0399  0.2234 -0.1879
 6106PW      WP23253   4.685  10.906  10.329  0.0514  0.2396 -0.2250
 6106PW      WM23254   4.732  10.742  10.150  0.0410  0.1794 -0.1488
 6107PW       W23255  12.003   7.330   0.344 -0.1412 -0.2382 -0.3892
 6107PW      WP23256  11.886   7.272   0.394  0.2408 -0.2058  0.6643
 6107PW      WM23257  11.945   7.419   0.253  0.0206  0.2829 -0.0063
 6108PW       W23258   1.409   3.884   2.988  0.0912  0.0291  0.0281
 6108PW      WP23259   1.524   3.949   3.036 -0.1153  0.5006 -0.0885
 6108PW      WM23260   1.282   3.925   3.028  0.1945  0.4071 -0.0132
 6109PW       W23261   0.517   1.896   0.662  0.2186  0.3405 -0.2734
 6109PW      WP23262   0.417   1.892   0.564 -0.2483 -0.1813  0.1961
 6109PW      WM23263   0.590   1.785   0.706 -0.1749  0.1163 -0.1609
 6110PW       W23264   4.694   8.515   1.451 -0.2910 -0.0339 -0.2708
 6110PW      WP23265   4.630   8.495   1.574 -0.0602 -0.1148 -0.1607
 6110PW      WM23266   4.597   8.598   1.393 -0.5988 -0.0341  0.2225
 6111PW       W23267   4.950  11.751  10.403  0.3342 -0.2904 -0.0949
 6111PW      WP23268   4.820  11.700  10.400  0.2537 -0.0901 -0.1252
 6111PW      WM23269   4.974  11.613  10.411  0.0494 -0.3449 -0.1463
 6112PW       W23270  11.218   6.568  13.275 -0.2223  0.3232  0.3332
 6112PW      WP23271  11.292   6.450  13.294 -0.4012  0.1658  0.0805
 6112PW      WM23272  11.143   6.454  13.305  0.6453 -0.2991  0.3543
 6113PW       W23273   3.731  10.107   3.715 -0.3013  0.6598 -0.0435
 6113PW      WP23274   3.607  10.047   3.692 -0.0430  0.2654 -0.4999
 6113PW      WM23275   3.814   9.998   3.686 -0.1792  0.6782  0.2192
 6114PW       W23276   0.277   7.799   2.593  0.0475 -0.0259  0.0481
 6114PW      WP23277   0.327   7.929   2.586 -0.5787  0.2435  0.2250
 6114PW      WM23278   0.353   7.725   2.502 -0.1320 -0.1557 -0.0002
 6115PW       W23279   0.040  10.138  13.008  0.0606 -0.2043  0.0915
 6115PW      WP23280   0.008  10.217  12.897 -0.4554 -0.2562  0.1896
 6115PW      WM23281   0.169  10.114  13.057 -0.0801 -0.1448  0.5153
 6116PW       W23282   8.677  11.575  12.572 -0.1855  0.6694  0.1338
 6116PW      WP23283   8.795  11.592  12.497  0.1314 -0.0899  0.4166
 6116PW      WM23284   8.663  11.598  12.709  0.5033  0.2479  0.3011
 6117PW       W23285   0.299   2.736   2.721 -0.1900 -0.0639 -0.4067
 6117PW      WP23286   0.430   2.701   2.687 -0.0460 -0.0568  0.0950
 6117PW      WM23287   0.290   2.597   2.711 -0.3029 -0.0958  0.0319
 6118PW       W23288   4.212   7.926   9.737 -0.5933 -0.1558 -0.2939
 6118PW      WP23289   4.249   7.828   9.644 -0.1096 -0.1163 -0.1592
 6118PW      WM23290   4.228   8.041   9.816 -0.2273 -0.2388 -0.2390
 6119PW       W23291  11.572   4.724   1.909 -0.0807 -0.1268 -0.3603
 6119PW      WP23292  11.639   4.787   2.014  0.4442 -0.9396 -0.1621
 6119PW      WM23293  11.435   4.753   1.904 -0.0936 -0.1996 -0.4562
 6120PW       W23294   2.164   8.949   8.685 -0.2066  0.0203 -0.2675
 6120PW      WP23295   2.044   9.000   8.736 -0.0379 -0.1514  0.3420
 6120PW      WM23296   2.171   9.083   8.723 -0.2633  0.0625 -0.4027
 6121PW       W23297   9.746   2.790  11.887  0.0192 -0.5609 -0.2632
 6121PW      WP23298   9.713   2.685  11.800  0.0094 -0.0893 -0.8542
 6121PW      WM23299   9.663   2.902  11.890  0.3697 -0.2681  0.8123
 6122PW       W23300   7.953   7.777   3.727  0.2207 -0.5075 -0.0141
 6122PW      WP23301   7.923   7.709   3.609 -0.2228  0.1021 -0.2730
 6122PW      WM23302   8.071   7.703   3.742  0.3742 -0.3051 -0.1971
 6123PW       W23303   3.527  10.912   0.880  0.0529 -0.2914  0.2062
 6123PW      WP23304   3.633  10.822   0.864  0.1864 -0.1236  0.1306
 6123PW      WM23305   3.545  11.011   0.978 -0.0937  0.1269 -0.1738
 6124PW       W23306   1.048  11.087  10.066  0.2000  0.1268 -0.0313
 6124PW      WP23307   1.055  11.212  10.005 -0.3053  0.1202 -0.1207
 6124PW      WM23308   0.928  11.153  10.094  0.1574 -0.0345  0.1875
 6125PW       W23309   0.300   2.208  13.112 -0.0495 -0.1044  0.2945
 6125PW      WP23310   0.437   2.235  13.110 -0.0516 -0.1058 -0.0179
 6125PW      WM23311   0.173   2.150  13.102 -0.4282  0.6351  0.4681
 6126PW       W23312   4.535   0.667  10.177  0.0125  0.1435 -0.1247
 6126PW      WP23313   4.658   0.717  10.136  0.1314  0.2199  0.2962
 6126PW      WM23314   4.432   0.662  10.082  0.0268  0.0454 -0.1352
 6127PW       W23315   2.267  12.015   8.523  0.0736  0.3839  0.1274
 6127PW      WP23316   2.232  12.027   8.658 -0.0265  0.2908  0.1103
 6127PW      WM23317   2.395  11.959   8.537 -0.1724 -0.2936 -0.1297
 6128PW       W23318   3.306   6.095   3.404  0.1949  0.3568 -0.2522
 6128PW      WP23319   3.226   5.987   3.363  0.4879  0.0354 -0.0098
 6128PW      WM23320   3.402   6.003   3.446 -0.3524  0.0415  0.4120
 6129PW       W23321  11.217   9.084   0.297 -0.1326  0.5461  0.2206
 6129PW      WP23322  11.121   9.073   0.195  0.5925  0.0061 -0.4705
 6129PW      WM23323  11.343   9.073   0.236 -0.3643 -0.5778 -0.1866
 6130PW       W23324   2.861   8.891   2.608  0.2147 -0.0299 -0.0559
 6130PW      WP23325   2.979   8.965   2.620  0.0416  0.3273 -0.4164
 6130PW      WM23326   2.747   8.927   2.681  0.0680  0.3249 -0.4363
 6131PW       W23327   0.915   9.637  10.925  0.1355 -0.2339  0.1887
 6131PW      WP23328   1.017   9.548  10.891 -0.0068 -0.2542 -0.2006
 6131PW      WM23329   0.933   9.774  10.943  0.2153 -0.1601 -0.3646
 6132PW       W23330   4.105   5.509   3.680  0.0497 -0.4331  0.4391
 6132PW      WP23331   4.024   5.404   3.636 -0.4511  0.2375 -0.4058
 6132PW      WM23332   3.973   5.540   3.643  0.3054  0.1151 -0.0921
 6133PW       W23333  10.183   0.763   4.376  0.3528  0.1357 -0.2100
 6133PW      WP23334  10.201   0.638   4.315  0.6043  0.0997 -0.0721
 6133PW      WM23335  10.225   0.866   4.462 -0.0271 -0.0434  0.2096
 6134PW       W23336  10.899   7.321   9.792 -0.1978  0.4204 -0.6544
 6134PW      WP23337  10.883   7.255   9.670 -0.1108 -0.4282 -0.2437
 6134PW      WM23338  10.761   7.295   9.784 -0.1494 -0.2872  0.1298
 6135PW       W23339   8.752   6.666  10.106 -0.0211  0.1994 -0.0825
 6135PW      WP23340   8.834   6.553  10.115  0.1314  0.3193  0.0545
 6135PW      WM23341   8.792   6.574  10.204 -0.4730  0.1867  0.1054
 6136PW       W23342   4.569   3.127  11.926  0.0932  0.1105 -0.0602
 6136PW      WP23343   4.469   3.131  12.023 -0.1654  0.0771 -0.3188
 6136PW      WM23344   4.549   2.989  11.913  0.4233  0.0461  0.0785
 6137PW       W23345   5.662  10.903   1.363  0.0338 -0.3733 -0.6634
 6137PW      WP23346   5.794  10.947   1.373 -0.2038  0.2742  0.1175
 6137PW      WM23347   5.628  11.017   1.290  0.0021  0.1010  0.0456
 6138PW       W23348  11.784   9.469  11.672  0.4223 -0.0956 -0.6817
 6138PW      WP23349  11.707   9.362  11.626  0.5982 -0.5657  0.0274
 6138PW      WM23350  11.908   9.533  11.658  0.3204  0.2175 -0.2693
 6139PW       W23351   8.394  11.842   9.578  0.2195  0.1793 -0.4713
 6139PW      WP23352   8.345  11.968   9.614 -0.2012 -0.1774  0.3237
 6139PW      WM23353   8.255  11.822   9.577  0.2256  0.0636 -0.0209
 6140PW       W23354   0.214  10.025  10.871  0.2941  0.3094  0.1374
 6140PW      WP23355   0.189  10.032  10.734  0.0516  0.1866  0.1725
 6140PW      WM23356   0.134   9.911  10.859  0.2595  0.3253  0.2127
 6141PW       W23357   6.458   2.532   5.037  0.4127 -0.3833  0.1989
 6141PW      WP23358   6.549   2.524   5.143  0.2005 -0.2315  0.3991
 6141PW      WM23359   6.573   2.515   4.959  0.0985 -0.1635 -0.3393
 6142PW       W23360  11.767  10.363   3.134  0.3848  0.0097 -0.0380
 6142PW      WP23361  11.726  10.492   3.168  0.1438  0.0031 -0.2845
 6142PW      WM23362  11.706  10.252   3.075  0.4403 -0.1294  0.1604
 6143PW       W23363   7.856   5.093   9.901 -0.1298  0.2890 -0.3466
 6143PW      WP23364   7.725   5.129   9.935 -0.2061 -0.5195  0.4201
 6143PW      WM23365   7.963   5.034   9.832  0.0051 -0.0011  0.0857
 6144PW       W23366   1.153  10.774  10.546  0.0880 -0.0047 -0.0474
 6144PW      WP23367   1.092  10.860  10.454  0.0365 -0.0903 -0.0934
 6144PW      WM23368   1.189  10.753  10.680 -0.0685 -0.2262 -0.0392
 6145PW       W23369   4.733   0.564  10.604  0.1536  0.1507  0.7582
 6145PW      WP23370   4.652   0.652  10.677 -0.4529  0.1511  0.1390
 6145PW      WM23371   4.821   0.580  10.712  0.3627  0.2556  0.5759
 6146PW       W23372   7.207   4.098  12.994 -0.2479  0.3895 -0.1695
 6146PW      WP23373   7.104   4.016  12.945  0.1548 -0.3968  0.1961
 6146PW      WM23374   7.148   4.093  13.121  0.2401 -0.3194  0.0594
 6147PW       W23375   1.026   9.056   0.639  0.2270  0.2451 -0.2806
 6147PW      WP23376   0.896   9.083   0.593  0.0189 -0.6437 -0.3022
 6147PW      WM23377   1.044   9.060   0.778  0.0637 -0.2027 -0.2400
 6148PW       W23378  -0.024   2.524   5.048 -0.2999  0.1610  0.2743
 6148PW      WP23379  -0.065   2.658   5.043 -0.1407  0.2127  0.3241
 6148PW      WM23380   0.103   2.559   5.000 -0.2005  0.1821  0.5451
 6149PW       W23381   4.167   6.895   4.449  0.2928 -0.0344  0.2996
 6149PW      WP23382   4.263   6.826   4.373 -0.1896 -0.5892  0.1613
 6149PW      WM23383   4.163   6.961   4.325  0.3327  0.2602  0.4487
 6150PW       W23384   1.430   0.379   1.460  0.2488 -0.0030  0.1029
 6150PW      WP23385   1.297   0.376   1.418  0.2337 -0.3016  0.1588
 6150PW      WM23386   1.486   0.505   1.441 -0.0445  0.1500  0.2228
 6151PW       W23387  11.530   3.543   4.797  0.2602 -0.1664  0.3707
 6151PW      WP23388  11.461   3.663   4.814  0.3780 -0.0274 -0.0643
 6151PW      WM23389  11.518   3.403   4.794 -0.4100 -0.1492 -0.7141
 6152PW       W23390   9.609   1.432   1.117 -0.4158  0.0446 -0.0108
 6152PW      WP23391   9.525   1.369   1.024 -0.0771 -0.2452 -0.1360
 6152PW      WM23392   9.535   1.531   1.182 -0.2539  0.1891 -0.0412
 6153PW       W23393   0.802   1.270   3.783  0.0880 -0.2309  0.0978
 6153PW      WP23394   0.893   1.352   3.851  0.2059 -0.4805  0.2480
 6153PW      WM23395   0.702   1.347   3.723 -0.0301 -0.0562  0.5035
 6154PW       W23396   1.426   1.265   1.656  0.0885  0.0108  0.1298
 6154PW      WP23397   1.524   1.358   1.620  0.3929 -0.3380  0.0284
 6154PW      WM23398   1.502   1.166   1.718 -0.0290 -0.1748 -0.0176
 6155PW       W23399   3.573  10.509   2.415 -0.0162  0.0760  0.2387
 6155PW      WP23400   3.655  10.620   2.442  0.1122  0.1575 -0.3925
 6155PW      WM23401   3.435  10.525   2.402  0.0065  0.2459  0.1958
 6156PW       W23402   1.334   7.496   2.901 -0.1858  0.1484 -0.0289
 6156PW      WP23403   1.374   7.562   3.018 -0.3403  0.5850 -0.2145
 6156PW      WM23404   1.369   7.631   2.898 -0.2994  0.1915  0.3211
 6157PW       W23405   4.822   5.826   0.450  0.2578 -0.1012 -0.0843
 6157PW      WP23406   4.732   5.766   0.539  0.2070  0.3314  0.1693
 6157PW      WM23407   4.867   5.730   0.541  0.1703 -0.5395 -0.4799
 6158PW       W23408   9.477   1.235  10.920  0.6240  0.3866 -0.3860
 6158PW      WP23409   9.470   1.121  10.838 -0.3459 -0.3565  0.5831
 6158PW      WM23410   9.368   1.322  10.937  0.5621  0.2927 -0.2935
 6159PW       W23411   6.753   7.725  11.276  0.0791  0.1984 -0.0396
 6159PW      WP23412   6.818   7.717  11.400 -0.0761  0.5245  0.0693
 6159PW      WM23413   6.759   7.599  11.215  0.3107  0.4917 -0.6548
 6160PW       W23414   7.571  11.189   3.767 -0.4000  0.4432 -0.1746
 6160PW      WP23415   7.508  11.117   3.664 -0.0189  0.4671 -0.4367
 6160PW      WM23416   7.696  11.139   3.728 -0.5734 -0.0211 -0.1686
 6161PW       W23417   8.908  10.048   9.442  0.0121  0.0888 -0.0603
 6161PW      WP23418   8.929   9.912   9.411 -0.2449 -0.0371  0.2915
 6161PW      WM23419   8.785  10.007   9.495  0.2742 -0.0678  0.4605
 6162PW       W23420   3.825   0.940   9.570 -0.0692 -0.5529 -0.1144
 6162PW      WP23421   3.782   1.010   9.684  0.3450 -0.1458 -0.1943
 6162PW      WM23422   3.816   1.068   9.627 -0.0408 -0.7204  0.2825
 6163PW       W23423  10.206   1.723  12.595 -0.5277  0.2418  0.2536
 6163PW      WP23424  10.140   1.830  12.533 -0.2275 -0.1656 -0.8894
 6163PW      WM23425  10.200   1.821  12.695 -0.6731  0.3253  0.1670
 6164PW       W23426   6.919   4.367  11.909 -0.0199  0.0215 -0.0343
 6164PW      WP23427   6.883   4.265  11.819  0.2349  0.0777 -0.2035
 6164PW      WM23428   6.792   4.426  11.912 -0.2662 -0.4908  0.1813
 6165PW       W23429   4.110   9.841   1.386 -0.4245  0.1774  0.1080
 6165PW      WP23430   4.007   9.793   1.304 -0.2459 -0.3119  0.1543
 6165PW      WM23431   4.135   9.948   1.298  0.2676 -0.3952 -0.4521
 6166PW       W23432   8.012   7.735  11.966 -0.4827  0.1529 -0.1676
 6166PW      WP23433   7.892   7.674  12.004 -0.3634 -0.0981 -0.1860
 6166PW      WM23434   8.061   7.749  12.097  0.3365 -0.4631 -0.3630
 6167PW       W23435   7.689  11.085   9.270 -0.5992  0.1279 -0.0621
 6167PW      WP23436   7.677  11.150   9.394 -0.1148 -0.5518  0.3789
 6167PW      WM23437   7.701  11.050   9.136  0.6887  0.3032 -0.0568
 6168PW       W23438   4.435   6.002   8.375 -0.0709 -0.2986 -0.6741
 6168PW      WP23439   4.340   5.906   8.415 -0.0069 -0.1451 -0.1079
 6168PW      WM23440   4.316   6.074   8.360 -0.0249 -0.1201 -0.2493
 6169PW       W23441   9.691  11.967  11.562 -0.2888  0.3391 -0.1542
 6169PW      WP23442   9.657  12.050  11.455  0.0379  0.3247 -0.2757
 6169PW      WM23443   9.640  11.984  11.691 -0.1980  0.2682 -0.1088
 6170PW       W23444   5.324  10.692   3.411  0.0358 -0.1385  0.2804
 6170PW      WP23445   5.230  10.780   3.356  0.3137  0.1799  0.3032
 6170PW      WM23446   5.368  10.813   3.466  0.2503  0.0922 -0.3556
 6171PW       W23447   2.465   1.929   0.577 -0.1930  0.0773 -0.0520
 6171PW      WP23448   2.432   1.924   0.442  0.2766 -0.0195 -0.1708
 6171PW      WM23449   2.384   1.920   0.692 -0.2364  0.0200 -0.0868
 6172PW       W23450   9.775   6.609   3.945 -0.3705 -0.0404 -0.2289
 6172PW      WP23451   9.658   6.684   3.935 -0.0473  0.4738 -0.3369
 6172PW      WM23452   9.730   6.479   3.973 -0.4102 -0.0860 -0.4900
 6173PW       W23453  10.283   3.766   0.077 -0.1434  0.2716  0.2399
 6173PW      WP23454  10.159   3.760   0.141 -0.1072 -0.0577  0.2884
 6173PW      WM23455  10.313   3.894   0.125  0.6915  0.0885  0.2812
 6174PW       W23456   3.523  11.192  11.239 -0.2260 -0.2156 -0.3578
 6174PW      WP23457   3.401  11.130  11.209 -0.3059 -0.3242  0.1484
 6174PW      WM23458   3.598  11.256  11.139 -0.0512  0.0391 -0.0702
 6175PW       W23459   4.080   5.421   1.676  0.1677 -0.0662  0.4366
 6175PW      WP23460   4.052   5.291   1.633  0.0068  0.0386  0.2121
 6175PW      WM23461   3.942   5.404   1.663  0.1858  0.1741 -0.2659
 6176PW       W23462   9.303   0.187  11.641  0.1056 -0.5032 -0.2021
 6176PW      WP23463   9.295   0.108  11.756  0.1599 -0.0885  0.1001
 6176PW      WM23464   9.336   0.238  11.515  0.2969 -0.3059 -0.0761
 6177PW       W23465   6.240  11.818   5.113  0.1683  0.2290  0.0754
 6177PW      WP23466   6.356  11.840   5.038  0.0360  0.0422 -0.1914
 6177PW      WM23467   6.143  11.878   5.033 -0.1063 -0.3254 -0.0339
 6178PW       W23468   1.479   1.181  13.208  0.1173  0.3485 -0.0917
 6178PW      WP23469   1.473   1.237  13.080  0.2287  0.5534 -0.0102
 6178PW      WM23470   1.403   1.086  13.139 -0.0031  0.0317  0.4476
 6179PW       W23471   3.899  10.945  13.252  0.0896 -0.1645  0.1925
 6179PW      WP23472   3.854  10.917  13.123 -0.3640 -0.0722  0.3227
 6179PW      WM23473   3.915  11.084  13.256 -0.2671 -0.0913 -0.3849
 6180PW       W23474   0.847   2.858  11.839  0.1504 -0.0505 -0.1824
 6180PW      WP23475   0.852   2.943  11.728  0.0367 -0.0458 -0.1845
 6180PW      WM23476   0.906   2.733  11.858 -0.2467 -0.2380 -0.1403
 6181PW       W23477  10.618   2.838   4.763  0.1185 -0.0282  0.0061
 6181PW      WP23478  10.712   2.821   4.865 -0.1604 -0.2042  0.2417
 6181PW      WM23479  10.540   2.770   4.669 -0.0342 -0.0067  0.1149
 6182PW       W23480   7.209   4.818   5.136  0.6578  0.5141 -0.0636
 6182PW      WP23481   7.307   4.743   5.070  0.2969 -0.1440  0.1045
 6182PW      WM23482   7.283   4.901   5.222  0.8564  0.4715 -0.1885
 6183PW       W23483   3.321   7.926  10.948 -0.0436 -0.0581  0.1737
 6183PW      WP23484   3.295   7.796  10.903  0.1444 -0.1835  0.4146
 6183PW      WM23485   3.436   7.900  10.873 -0.1467  0.1688 -0.0710
 6184PW       W23486   7.280  10.698   5.349 -0.3402 -0.2178 -0.0776
 6184PW      WP23487   7.200  10.795   5.289  0.1583  0.2201 -0.0661
 6184PW      WM23488   7.365  10.641   5.253  0.0829 -0.2382  0.2910
 6185PW       W23489   3.996   9.893  11.946  0.2733  0.0693  0.3783
 6185PW      WP23490   3.926   9.832  12.050 -0.4461  0.3995  0.1177
 6185PW      WM23491   3.859   9.900  11.918  0.4109  0.5720 -0.2960
 6186PW       W23492   5.097   5.334  10.124 -0.1302  0.1398 -0.1443
 6186PW      WP23493   5.035   5.441  10.190 -0.1814  0.0372 -0.0226
 6186PW      WM23494   5.140   5.273  10.006 -0.0390 -0.0156 -0.0321
 6187PW       W23495  11.104  10.045  12.152 -0.2018 -0.3470  0.2200
 6187PW      WP23496  11.169  10.074  12.273  0.0739 -0.3361  0.0707
 6187PW      WM23497  11.010  10.131  12.094  0.4674  0.3406  0.0820
 6188PW       W23498   1.834  10.479   1.400  0.3929  0.2914  0.2490
 6188PW      WP23499   1.747  10.569   1.462  0.2373  0.3166  0.0015
 6188PW      WM23500   1.851  10.420   1.525 -0.2708 -0.6029 -0.0306
 6189PW       W23501   7.666   2.446   2.176 -0.5733 -0.0317 -0.2101
 6189PW      WP23502   7.563   2.361   2.136 -0.7830  0.1657 -0.1031
 6189PW      WM23503   7.627   2.427   2.309 -0.5097 -0.1278 -0.2049
 6190PW       W23504  10.484   2.798   2.080 -0.2063 -0.2480 -0.1485
 6190PW      WP23505  10.378   2.706   2.079  0.0917 -0.6057 -0.3524
 6190PW      WM23506  10.607   2.865   2.067 -0.2162  0.0239  0.8136
 6191PW       W23507   9.789   5.657  12.657  0.0967  0.2390 -0.1603
 6191PW      WP23508   9.703   5.638  12.766  0.3793 -0.0483  0.0207
 6191PW      WM23509   9.810   5.539  12.729  0.1395  0.3007 -0.0713
 6192PW       W23510   1.300  12.022  10.582  0.4616 -0.1670  0.0718
 6192PW      WP23511   1.430  11.973  10.564  0.5344  0.0268  0.0577
 6192PW      WM23512   1.267  12.038  10.717 -0.6820 -0.5034 -0.1188
 6193PW       W23513   2.493   6.456  11.334  0.1621  0.0285 -0.2415
 6193PW      WP23514   2.621   6.403  11.354  0.0099 -0.3042 -0.1164
 6193PW      WM23515   2.468   6.512  11.208 -0.0719  0.1361 -0.1504
 6194PW       W23516   9.515   7.623  13.342  0.1945 -0.0114  0.0927
 6194PW      WP23517   9.421   7.683  13.426  0.0864  0.0566 -0.0762
 6194PW      WM23518   9.479   7.493  13.303  0.1294  0.0588 -0.0831
 6195PW       W23519   7.653   2.732   4.814 -0.1751  0.0981 -0.1939
 6195PW      WP23520   7.514   2.723   4.797 -0.2866  0.2687  0.4868
 6195PW      WM23521   7.645   2.760   4.951 -0.1374  0.0428 -0.1805
 6196PW       W23522  10.231   9.072   0.343 -0.1832 -0.1915  0.0298
 6196PW      WP23523  10.270   9.195   0.396  0.2870 -0.2007 -0.2644
 6196PW      WM23524  10.256   8.940   0.304  0.0582 -0.0986 -0.1422
 6197PW       W23525   9.512   9.725  11.661 -0.2763 -0.0012 -0.2960
 6197PW      WP23526   9.495   9.829  11.569  0.0866  0.1099 -0.2464
 6197PW      WM23527   9.383   9.756  11.706 -0.1027  0.1055  0.1568
 6198PW       W23528   4.260   0.919  13.203 -0.2193 -0.1330  0.5897
 6198PW      WP23529   4.169   1.016  13.159 -0.4451 -0.4813  0.2512
 6198PW      WM23530   4.212   0.837  13.099  0.1742  0.0882  0.2160
 6199PW       W23531  12.001   7.135  10.459 -0.5377 -0.2852  0.1580
 6199PW      WP23532  12.070   7.145  10.337 -0.0439 -0.0201  0.4405
 6199PW      WM23533  11.992   7.240  10.551 -0.0985 -0.5024  0.4656
 6200PW       W23534   6.547  10.646   3.827  0.2447 -0.5040  0.4024
 6200PW      WP23535   6.513  10.727   3.936  0.5505  0.2561 -0.0288
 6200PW      WM23536   6.524  10.784   3.824 -0.5670 -0.5939 -0.7638
 6201PW       W23537   6.559   9.236   4.336 -0.1106 -0.1422 -0.0761
 6201PW      WP23538   6.456   9.325   4.306  0.0983  0.0875 -0.1300
 6201PW      WM23539   6.644   9.332   4.393 -0.0388 -0.2146 -0.0594
 6202PW       W23540   5.068   0.287   8.694 -0.2317  0.3051 -0.5375
 6202PW      WP23541   4.987   0.173   8.684  0.1646 -0.1475  0.5937
 6202PW      WM23542   5.088   0.419   8.736 -0.0675  0.1687 -0.1601
 6203PW       W23543   2.091   9.282   2.365  0.1169 -0.4950 -0.1154
 6203PW      WP23544   1.969   9.217   2.381 -0.2224  0.1323  0.0277
 6203PW      WM23545   2.094   9.315   2.229  0.0118 -0.2340 -0.0573
 6204PW       W23546   5.044   3.756   9.125 -0.0713  0.1588  0.3527
 6204PW      WP23547   4.996   3.630   9.088 -0.0647  0.1777  0.2775
 6204PW      WM23548   4.976   3.859   9.192 -0.8902 -0.0879 -0.0351
 6205PW       W23549   8.282   5.666  13.138  0.3970 -0.5911  0.0090
 6205PW      WP23550   8.308   5.655  13.000  0.3264 -0.2301 -0.0392
 6205PW      WM23551   8.188   5.573  13.182 -0.0613 -0.0186  0.3053
 6206PW       W23552   1.631   4.036  12.956  0.0294 -0.0511  0.2381
 6206PW      WP23553   1.751   4.037  12.885  0.0145 -0.0522  0.2130
 6206PW      WM23554   1.683   3.975  13.071 -0.1298 -0.0705  0.3011
 6207PW       W23555   7.484   7.425   4.844 -0.1793 -0.2373 -0.0765
 6207PW      WP23556   7.496   7.550   4.782  0.4165 -0.2137  0.0510
 6207PW      WM23557   7.554   7.381   4.957  0.1858 -0.0336 -0.2150
 6208PW       W23558   3.113   3.445   4.807 -0.5855 -0.2312  0.1686
 6208PW      WP23559   3.071   3.390   4.929 -0.3393 -0.6612  0.0706
 6208PW      WM23560   3.209   3.369   4.739 -0.1875  0.1077  0.3250
 6209PW       W23561   7.637   1.017   9.537 -0.1757 -0.2077  0.1886
 6209PW      WP23562   7.767   1.058   9.567 -0.1984 -0.0059  0.0205
 6209PW      WM23563   7.587   1.133   9.476 -0.2720  0.0752  0.7693
 6210PW       W23564   8.477   8.490   4.657 -0.0657  0.1409 -0.0331
 6210PW      WP23565   8.412   8.379   4.713  0.1844  0.2517  0.5092
 6210PW      WM23566   8.393   8.601   4.670 -0.0481  0.1190  0.3155
 6211PW       W23567   6.204   8.822  10.232  0.6829 -0.2150  0.1273
 6211PW      WP23568   6.122   8.849  10.343 -0.1149 -0.6863 -0.3019
 6211PW      WM23569   6.246   8.926  10.149  0.2438 -0.0173  0.1390
 6212PW       W23570   9.004   8.517   2.543 -0.0763  0.0926  0.0163
 6212PW      WP23571   8.948   8.641   2.511  0.0704  0.1640  0.0307
 6212PW      WM23572   9.123   8.590   2.528 -0.0022 -0.0195  0.0487
 6213PW       W23573   3.255   7.240   0.059 -0.0931  0.0910 -0.3465
 6213PW      WP23574   3.223   7.346   0.145 -0.1919 -0.1316 -0.1020
 6213PW      WM23575   3.240   7.101   0.054  0.0763  0.0501  0.0422
 6214PW       W23576   5.509   3.426  11.679  0.0017  0.4302 -0.1560
 6214PW      WP23577   5.613   3.511  11.639  0.3653 -0.0787 -0.3498
 6214PW      WM23578   5.386   3.434  11.745  0.0544 -0.2036  0.0484
 6215PW       W23579   5.313   3.101   0.300  0.2248  0.3693 -0.5218
 6215PW      WP23580   5.241   2.984   0.325  0.3556  0.2312 -0.7743
 6215PW      WM23581   5.404   3.195   0.348  0.0831  0.0915  0.3688
 6216PW       W23582   5.421   7.577   3.262  0.4625  0.1829  0.1618
 6216PW      WP23583   5.467   7.455   3.313  0.6054  0.3078  0.3394
 6216PW      WM23584   5.345   7.576   3.380  0.2168  0.6289  0.0204
 6217PW       W23585   6.112   8.713   3.449  0.2848 -0.4745  0.0325
 6217PW      WP23586   6.115   8.849   3.483 -0.5190 -0.3238 -0.3829
 6217PW      WM23587   5.985   8.704   3.391  0.2892  0.2813 -0.1442
 6218PW       W23588  10.176   2.427   9.124  0.1710 -0.3406 -0.1707
 6218PW      WP23589  10.234   2.434   9.251 -0.2293 -0.2935  0.0173
 6218PW      WM23590  10.309   2.458   9.096  0.1490 -0.2897 -0.2200
 6219PW       W23591   8.156   1.072  11.906  0.2421 -0.1351  0.1262
 6219PW      WP23592   8.095   0.980  11.820  0.0051 -0.1961  0.3533
 6219PW      WM23593   8.209   1.201  11.896 -0.4869  0.1560 -0.4591
 6220PW       W23594   1.796   6.721   2.222  0.3321  0.1561 -0.3394
 6220PW      WP23595   1.764   6.760   2.091 -0.2477 -0.2015 -0.3197
 6220PW      WM23596   1.850   6.820   2.139 -0.1237  0.2754 -0.5043
 6221PW       W23597   0.027   2.132   4.768  0.1706  0.1481  0.2700
 6221PW      WP23598   0.119   2.179   4.862 -0.0333 -0.1138  0.6095
 6221PW      WM23599   0.150   2.143   4.702  0.2110 -0.2395  0.2681
 6222PW       W23600   9.020   3.741  13.244  0.4416  0.1916  0.2313
 6222PW      WP23601   9.139   3.738  13.171  0.2543 -0.1429 -0.0765
 6222PW      WM23602   9.025   3.611  13.191  0.7062  0.1994  0.2300
 6223PW       W23603  11.051   0.693  10.984 -0.1399 -0.6051  0.1505
 6223PW      WP23604  11.044   0.599  11.088  0.1399 -0.0186  0.7411
 6223PW      WM23605  11.184   0.652  10.968  0.1588  0.4436 -0.5014
 6224PW       W23606   0.499   5.926   4.628  0.3534 -0.3045  0.2655
 6224PW      WP23607   0.577   5.983   4.729  0.2771  0.6171 -0.1444
 6224PW      WM23608   0.527   6.056   4.584 -0.6777 -0.0702  0.1611
 6225PW       W23609   6.903   7.671   3.408 -0.0523 -0.0482  0.3707
 6225PW      WP23610   6.784   7.602   3.379  0.4086 -0.5705 -0.4953
 6225PW      WM23611   6.932   7.794   3.348 -0.3071 -0.2327 -0.1603
 6226PW       W23612  11.640   1.328   1.220 -0.1336  0.6460 -0.4777
 6226PW      WP23613  11.515   1.333   1.156 -0.3456 -0.3101 -0.2186
 6226PW      WM23614  11.603   1.235   1.122 -0.2993  0.2255 -0.0366
 6227PW       W23615   6.567   7.575   4.532  0.0013  0.4065 -0.0179
 6227PW      WP23616   6.480   7.474   4.487  0.3093  0.0091  0.2414
 6227PW      WM23617   6.689   7.638   4.558  0.0822  0.2428  0.0056
 6228PW       W23618  10.984   7.207   1.734  0.3219  0.2304 -0.2442
 6228PW      WP23619  10.932   7.305   1.649 -0.1892  0.0654 -0.1358
 6228PW      WM23620  11.114   7.155   1.733  0.1293 -0.3079  0.0990
 6229PW       W23621  10.992   5.499   0.450  0.0879 -0.0230 -0.0223
 6229PW      WP23622  11.016   5.475   0.314  0.2943 -0.2667  0.0523
 6229PW      WM23623  10.901   5.469   0.552 -0.1087  0.2419 -0.1161
 6230PW       W23624   3.398  10.009  12.633 -0.1688 -0.5198 -0.0787
 6230PW      WP23625   3.440   9.876  12.629  0.5928 -0.3498  0.7008
 6230PW      WM23626   3.264  10.049  12.627  0.1620  0.8190 -0.1459
 6231PW       W23627  11.166   4.867   1.682 -0.1288  0.2236 -0.3038
 6231PW      WP23628  11.299   4.833   1.655 -0.1602 -0.1939  0.0107
 6231PW      WM23629  11.038   4.811   1.681  0.0857 -0.3434  0.2735
 6232PW       W23630   5.115   6.072   2.640 -0.1802  0.2074 -0.3397
 6232PW      WP23631   4.978   6.052   2.616 -0.1990 -0.3064  0.0995
 6232PW      WM23632   5.134   6.038   2.774 -0.1224 -0.5976 -0.5248
 6233PW       W23633   4.407   4.137   4.596  0.4104  0.0547  0.0590
 6233PW      WP23634   4.365   4.021   4.663  0.0743  0.1397  0.0042
 6233PW      WM23635   4.470   4.210   4.698  0.5146 -0.0701  0.0846
 6234PW       W23636   2.314  10.507   9.887 -0.1502 -0.0530 -0.1059
 6234PW      WP23637   2.352  10.628   9.827  0.1518 -0.0509  0.0771
 6234PW      WM23638   2.281  10.600   9.987 -0.5406  0.1790 -0.4325
 6235PW       W23639   1.586   0.290   9.752 -0.1137  0.1481  0.3331
 6235PW      WP23640   1.518   0.316   9.871 -0.7626  0.5404 -0.0959
 6235PW      WM23641   1.630   0.423   9.744  0.0627  0.0837  0.1718
 6236PW       W23642   7.698   5.684   5.019  0.4474  0.1696 -0.4133
 6236PW      WP23643   7.809   5.770   5.021  0.3428  0.3164  0.2731
 6236PW      WM23644   7.723   5.687   4.881  0.2419  0.4302 -0.4496
 6237PW       W23645   4.414  11.113  10.695 -0.1302  0.3154 -0.0150
 6237PW      WP23646   4.481  11.224  10.745 -0.0926  0.1249  0.3799
 6237PW      WM23647   4.512  11.150  10.603 -0.0652 -0.2357 -0.1896
 6238PW       W23648   2.320   3.927   9.380  0.0058  0.4217  0.0371
 6238PW      WP23649   2.366   3.882   9.256 -0.1879 -0.1207  0.1491
 6238PW      WM23650   2.193   3.871   9.393  0.2346 -0.1515 -0.0343
 6239PW       W23651  10.955   8.683   0.448  0.2024  0.0607  0.0578
 6239PW      WP23652  10.916   8.648   0.317 -0.0735  0.6130 -0.0222
 6239PW      WM23653  11.094   8.686   0.434  0.1945 -0.3184 -0.1976
 6240PW       W23654   9.604   8.554  12.701 -0.0478  0.1871  0.3751
 6240PW      WP23655   9.562   8.455  12.789  0.1979 -0.1151  0.1625
 6240PW      WM23656   9.539   8.677  12.683  0.1672  0.2219 -0.3230
 6241PW       W23657   1.552   2.431   4.178 -0.5982 -0.1940  0.3070
 6241PW      WP23658   1.529   2.308   4.115 -0.3480 -0.1070  0.0333
 6241PW      WM23659   1.558   2.335   4.280 -0.3419 -0.8039 -0.2501
 6242PW       W23660  10.924  11.936   2.956  0.2541  0.1676 -0.3790
 6242PW      WP23661  11.001  11.886   2.850 -0.1630 -0.2638 -0.4925
 6242PW      WM23662  10.789  11.903   2.941  0.3366 -0.1722 -0.4218
 6243PW       W23663   0.920   9.429   4.167  0.0804  0.1787 -0.0383
 6243PW      WP23664   0.859   9.304   4.174  0.0340  0.1979 -0.0906
 6243PW      WM23665   1.008   9.396   4.271  0.3906  0.3697 -0.2309
 6244PW       W23666   5.191   1.360   9.292 -0.0825  0.0167  0.3118
 6244PW      WP23667   5.283   1.329   9.394  0.1375  0.3661  0.2285
 6244PW      WM23668   5.148   1.393   9.163  0.4054  0.8709  0.3246
 6245PW       W23669   1.021   7.809   0.009 -0.0619 -0.6468 -0.2033
 6245PW      WP23670   1.089   7.864  -0.100  0.3145 -0.5921  0.0531
 6245PW      WM23671   1.089   7.748   0.115 -0.1835  0.3582  0.5259
 6246PW       W23672   7.224   4.515  11.453 -0.2111  0.0670 -0.0875
 6246PW      WP23673   7.179   4.628  11.521 -0.4107  0.0142 -0.1265
 6246PW      WM23674   7.149   4.429  11.535 -0.1736  0.2134  0.1037
 6247PW       W23675   1.408   2.945   4.063 -0.0599  0.0930  0.0236
 6247PW      WP23676   1.369   2.838   3.981  0.2988  0.0286 -0.0745
 6247PW      WM23677   1.380   2.950   4.200  0.2131  0.7469  0.0725
 6248PW       W23678   9.899   4.862   0.791  0.2089  0.1979  0.1802
 6248PW      WP23679  10.031   4.820   0.811  0.1550  0.0562  0.2481
 6248PW      WM23680   9.789   4.901   0.869 -0.1844  0.2106 -0.3494
 6249PW       W23681   0.138   8.820  12.131  0.1212  0.0189 -0.0061
 6249PW      WP23682   0.016   8.876  12.093  0.0123  0.1710  0.5186
 6249PW      WM23683   0.169   8.758  12.009  0.3367  0.4875 -0.2019
 6250PW       W23684   2.837   5.857   0.027  0.0568  0.1724 -0.4099
 6250PW      WP23685   2.733   5.951   0.032 -0.0482  0.0458  0.3009
 6250PW      WM23686   2.759   5.744   0.053  0.3919  0.0639  0.2101
 6251PW       W23687   8.750   4.607   5.106  0.2615  0.2385 -0.1714
 6251PW      WP23688   8.882   4.569   5.130  0.2150  0.3231  0.2487
 6251PW      WM23689   8.759   4.705   5.206  0.4912 -0.0508  0.1026
 6252PW       W23690   2.849   9.016  12.707 -0.0022  0.1732 -0.4992
 6252PW      WP23691   2.834   9.097  12.820  0.3747 -0.9270  0.4386
 6252PW      WM23692   2.779   8.935  12.616  0.1045  0.1499 -0.5611
 6253PW       W23693   5.461   5.929   1.482  0.2249 -0.1400  0.1243
 6253PW      WP23694   5.458   5.810   1.408  0.2464 -0.0976  0.0552
 6253PW      WM23695   5.598   5.908   1.497  0.1666 -0.3570  0.3919
 6254PW       W23696   1.626   6.611   0.176 -0.4084  0.2280 -0.2453
 6254PW      WP23697   1.736   6.641   0.258 -0.5110 -0.1136  0.0284
 6254PW      WM23698   1.576   6.488   0.221 -0.0471  0.2214  0.1805
 6255PW       W23699   1.392   4.422  11.044  0.3025  0.5594  0.4188
 6255PW      WP23700   1.261   4.410  10.998  0.5911  0.6172 -0.5098
 6255PW      WM23701   1.449   4.548  11.064  0.4251  0.6099 -0.1701
 6256PW       W23702  11.845   3.589  11.685 -0.1158 -0.3390 -0.0704
 6256PW      WP23703  11.898   3.625  11.810 -0.3485 -0.5014  0.0799
 6256PW      WM23704  11.892   3.605  11.554  0.0539  0.4710  0.0614
 6257PW       W23705   5.370   2.258  11.157 -0.0734  0.3041 -0.3953
 6257PW      WP23706   5.260   2.336  11.195 -0.2136 -0.2345  0.4242
 6257PW      WM23707   5.403   2.269  11.293 -0.1953  0.5077 -0.3801
 6258PW       W23708  10.074   6.779   2.037  0.1758 -0.1277  0.3417
 6258PW      WP23709  10.107   6.873   2.135  0.2260 -0.0094  0.2139
 6258PW      WM23710  10.181   6.737   1.957  0.0150  0.0469  0.0267
 6259PW       W23711   1.717  11.673   2.711  0.1027  0.0811  0.2476
 6259PW      WP23712   1.849  11.636   2.736  0.2076  0.3778  0.1510
 6259PW      WM23713   1.615  11.763   2.744  0.3388  0.2350  0.5817
 6260PW       W23714   8.654   5.063  10.551 -0.1386 -0.4027  0.0156
 6260PW      WP23715   8.521   5.097  10.524 -0.1217 -0.2085  0.1598
 6260PW      WM23716   8.710   4.966  10.635 -0.3196 -0.1840  0.4000
 6261PW       W23717   3.887   9.944   4.279 -0.7012 -0.0686  0.1832
 6261PW      WP23718   3.856   9.812   4.312  0.1635 -0.2857  0.2474
 6261PW      WM23719   3.960   9.872   4.183 -0.2111  0.0100  0.4769
 6262PW       W23720   5.622   3.478   8.530 -0.1277 -0.0860 -0.3985
 6262PW      WP23721   5.534   3.379   8.485  0.0447 -0.4827  0.0911
 6262PW      WM23722   5.591   3.377   8.622  0.1490  0.1544 -0.0265
 6263PW       W23723   5.614   8.981  10.794  0.6011  0.1409 -0.1705
 6263PW      WP23724   5.521   8.882  10.828  0.5223  0.2922  0.0674
 6263PW      WM23725   5.645   8.885  10.697 -0.0013 -0.2147 -0.0350
 6264PW       W23726   7.224   7.240  12.366  0.1943  0.3159  0.0198
 6264PW      WP23727   7.280   7.289  12.248 -0.1437  0.4749 -0.0826
 6264PW      WM23728   7.111   7.160  12.345  0.3552  0.1371 -0.1785
 6265PW       W23729   9.000   3.606  11.924  0.0439  0.4624  0.2019
 6265PW      WP23730   9.129   3.652  11.953  0.1124  0.0542  0.6140
 6265PW      WM23731   9.066   3.522  12.015  0.1839 -0.1125 -0.3951
 6266PW       W23732   9.460  11.185   1.476 -0.4368 -0.3252  0.3203
 6266PW      WP23733   9.464  11.096   1.585 -0.1376 -0.0713  0.5246
 6266PW      WM23734   9.342  11.253   1.441 -0.0614  0.3343  0.2620
 6267PW       W23735   2.081   3.745   8.850  0.0169 -0.0240  0.1903
 6267PW      WP23736   2.172   3.784   8.949  0.4912  0.1249 -0.2821
 6267PW      WM23737   2.115   3.810   8.731  0.4609 -0.2527  0.1794
 6268PW       W23738   5.267   5.624  10.524  0.0925  0.0566 -0.3379
 6268PW      WP23739   5.222   5.740  10.461  0.6078  0.3727 -0.1529
 6268PW      WM23740   5.368   5.707  10.573  0.1823 -0.4441  0.4135
 6269PW       W23741  11.817   2.408   0.201  0.1888 -0.3112 -0.0650
 6269PW      WP23742  11.932   2.391   0.279  0.0838 -0.0043  0.1682
 6269PW      WM23743  11.843   2.330   0.088  0.2213 -0.5740  0.1191
 6270PW       W23744   7.346   7.551   8.949  0.4845  0.2227  0.0360
 6270PW      WP23745   7.226   7.587   8.888  0.1033 -0.2103  0.4923
 6270PW      WM23746   7.339   7.438   9.031  0.1349  0.3999  0.2595
 6271PW       W23747   6.978   7.310   3.034 -0.3163  0.5379 -0.3542
 6271PW      WP23748   6.870   7.313   2.944 -0.3636  0.3007 -0.3071
 6271PW      WM23749   7.053   7.425   3.063  0.9424 -0.2033 -0.3234
 6272PW       W23750   0.044  11.708  10.382  0.1978 -0.5785 -0.3466
 6272PW      WP23751  -0.038  11.661  10.279 -0.0457 -0.1696 -0.3512
 6272PW      WM23752   0.134  11.656  10.475  0.8472 -0.2907 -0.7775
 6273PW       W23753   9.372   4.261   1.998 -0.0220  0.2429 -0.2917
 6273PW      WP23754   9.485   4.309   2.065 -0.4321  0.1303  0.5348
 6273PW      WM23755   9.380   4.203   2.125  0.3830  0.3538 -0.2564
 6274PW       W23756   5.476   9.113  11.243 -0.1242  0.1693  0.1302
 6274PW      WP23757   5.402   9.187  11.150  0.1307 -0.0517 -0.2656
 6274PW      WM23758   5.578   9.024  11.277 -0.2785 -0.0272  0.0907
 6275PW       W23759  11.391   4.603   3.702  0.2754  0.1959 -0.0908
 6275PW      WP23760  11.400   4.546   3.575 -0.0595 -0.0561 -0.0073
 6275PW      WM23761  11.439   4.660   3.821  0.0184  0.1077  0.0582
 6276PW       W23762   7.574   4.038   2.901 -0.2650  0.1497 -0.1627
 6276PW      WP23763   7.646   3.941   2.972 -0.4481 -0.0530 -0.2493
 6276PW      WM23764   7.444   3.992   2.877 -0.5911  0.9213 -0.0061
 6277PW       W23765   9.087   4.347  10.867 -0.1008  0.1142 -0.0296
 6277PW      WP23766   9.049   4.275  10.753 -0.2134 -0.2476  0.2302
 6277PW      WM23767   9.112   4.478  10.824 -0.2127  0.2017  0.1658
 6278PW       W23768   3.236   4.169   1.398 -0.2254  0.3864 -0.0519
 6278PW      WP23769   3.259   4.183   1.260 -0.3657  0.5068 -0.0645
 6278PW      WM23770   3.247   4.036   1.440 -0.0048  0.4180  0.0009
 6279PW       W23771   6.499   8.554  10.555 -0.1363 -0.1229 -0.2542
 6279PW      WP23772   6.375   8.618  10.574  0.0168  0.0641  0.1790
 6279PW      WM23773   6.501   8.694  10.558 -0.0299 -0.1069 -0.7037
 6280PW       W23774  11.162   0.766   2.494  0.0799 -0.0957 -0.0876
 6280PW      WP23775  11.295   0.742   2.457  0.1022  0.2320 -0.2376
 6280PW      WM23776  11.129   0.899   2.520  0.1870 -0.0387 -0.2399
 6281PW       W23777   9.368  10.375  13.047 -0.2923 -0.1192  0.3884
 6281PW      WP23778   9.370  10.385  13.186  0.7549 -0.1578  0.4157
 6281PW      WM23779   9.257  10.401  12.965  0.0094 -0.4107 -0.1449
 6282PW       W23780   4.504   0.839   2.223  0.0242 -0.1641 -0.1544
 6282PW      WP23781   4.419   0.879   2.119 -0.1475 -0.0157  0.0392
 6282PW      WM23782   4.636   0.792   2.235 -0.1542 -0.6830 -0.1344
 6283PW       W23783   2.165   8.117   0.884  0.1035  0.1867 -0.2895
 6283PW      WP23784   2.216   8.200   0.984 -0.2759  0.0255  0.0547
 6283PW      WM23785   2.186   7.991   0.941  0.7112  0.3677 -0.0800
 6284PW       W23786  10.156  11.221  12.413  0.4060  0.2172  0.1978
 6284PW      WP23787  10.122  11.357  12.409  0.3445  0.2031  0.2369
 6284PW      WM23788  10.143  11.165  12.541  0.1541 -0.2859 -0.0353
 6285PW       W23789   6.457   0.372  10.649 -0.0382  0.3831 -0.3214
 6285PW      WP23790   6.334   0.307  10.638  0.1352  0.0078 -0.1314
 6285PW      WM23791   6.543   0.425  10.745  0.1679  0.2155 -0.4091
 6286PW       W23792   2.596   5.527   3.566  0.4302  0.4943 -0.2047
 6286PW      WP23793   2.678   5.505   3.455  0.1257  0.0873 -0.3605
 6286PW      WM23794   2.587   5.650   3.500  0.1001  0.3921 -0.3627
 6287PW       W23795  12.063  10.294  12.048  0.7594  0.5784 -0.2111
 6287PW      WP23796  12.059  10.343  12.179  0.2622  0.1890 -0.0657
 6287PW      WM23797  12.127  10.171  12.033  0.0136  0.1649 -0.2684
 6288PW       W23798  10.324   6.269  12.394 -0.2178 -0.0875  0.1517
 6288PW      WP23799  10.198   6.209  12.410 -0.0855 -0.3847  0.1087
 6288PW      WM23800  10.299   6.357  12.289  0.1999  0.2573  0.3279
 6289PW       W23801   8.315   1.358  12.341  0.4590  0.3396 -0.4554
 6289PW      WP23802   8.410   1.449  12.388  0.0144  0.5468  0.0977
 6289PW      WM23803   8.271   1.422  12.225 -0.0058 -0.0275 -0.4987
 6290PW       W23804   1.624  11.257  13.051  0.0192 -0.1725 -0.1406
 6290PW      WP23805   1.684  11.375  13.007  0.0838 -0.1011  0.1299
 6290PW      WM23806   1.628  11.276  13.190 -0.3563  0.4026 -0.1903
 6291PW       W23807   1.906   2.558   2.285 -0.2062 -0.2081 -0.4372
 6291PW      WP23808   2.006   2.461   2.273  0.2074  0.0874  0.2914
 6291PW      WM23809   1.994   2.537   2.178 -0.0302  0.2051 -0.3853
 6292PW       W23810   0.195   7.779  12.460 -0.0035 -0.1536 -0.1126
 6292PW      WP23811   0.227   7.778  12.324  0.3535 -0.5646 -0.0375
 6292PW      WM23812   0.100   7.682  12.425 -0.0268 -0.2589  0.2238
 6293PW       W23813   9.899   7.024  12.210  0.2522  0.1349  0.2662
 6293PW      WP23814   9.961   6.899  12.197  0.0207  0.0298  0.1223
 6293PW      WM23815   9.816   7.052  12.101  0.3403 -0.1154  0.1298
 6294PW       W23816   8.280   5.305   1.649 -0.0527 -0.0424 -0.5190
 6294PW      WP23817   8.216   5.400   1.730 -0.0543 -0.5655  0.1369
 6294PW      WM23818   8.346   5.280   1.769 -0.7739  0.2748 -0.0214
 6295PW       W23819   0.959  11.748   4.620 -0.3685 -0.7022  0.5822
 6295PW      WP23820   1.092  11.725   4.657  0.0669 -0.0687 -0.3701
 6295PW      WM23821   0.997  11.874   4.669 -0.7108 -0.1262 -0.4688
 6296PW       W23822   4.496   0.570   2.623  0.4053 -0.2433 -0.9901
 6296PW      WP23823   4.471   0.706   2.644  0.0038 -0.4465  0.1350
 6296PW      WM23824   4.524   0.443   2.673  0.1663  0.0693  0.0536
 6297PW       W23825   7.943   1.179   0.341  0.1240 -0.0116  0.2483
 6297PW      WP23826   7.876   1.283   0.407  0.3617  0.1129  0.3009
 6297PW      WM23827   8.067   1.159   0.278  0.0792 -0.0767  0.1803
 6298PW       W23828   0.016  10.709   1.441 -0.1397  0.1506  0.2447
 6298PW      WP23829   0.135  10.650   1.483  0.2180  0.4063 -0.3455
 6298PW      WM23830  -0.052  10.771   1.336  0.1862  0.1401  0.0208
 6299PW       W23831   9.939  11.919  11.928 -0.3856 -0.1211  0.2500
 6299PW      WP23832   9.834  12.006  11.957 -0.1689  0.3906 -0.3644
 6299PW      WM23833  10.003  11.795  11.942  0.0090  0.0841  0.3458
 6300PW       W23834   9.834   4.777  10.396 -0.0914  0.0401  0.0305
 6300PW      WP23835   9.933   4.720  10.315 -0.4151 -0.3024 -0.1445
 6300PW      WM23836   9.709   4.716  10.414 -0.0320 -0.0139  0.2920
 6301PW       W23837   0.409   8.535   3.913  0.1605  0.2917  0.2424
 6301PW      WP23838   0.298   8.575   3.988  0.0513 -0.3073  0.4294
 6301PW      WM23839   0.502   8.589   4.002  0.0695 -0.1257  0.6082
 6302PW       W23840   0.580   8.362   9.296  0.3819  0.0293 -0.2881
 6302PW      WP23841   0.546   8.263   9.203  0.3082 -0.2652  0.0434
 6302PW      WM23842   0.529   8.492   9.305  0.1567 -0.0658 -0.1450
 6303PW       W23843  10.703   0.187  10.333  0.4176  0.2308  0.4153
 6303PW      WP23844  10.571   0.233  10.329  0.4202  0.2273  0.1718
 6303PW      WM23845  10.759   0.072  10.388 -0.1341 -0.3149 -0.0897
 6304PW       W23846   4.196  11.921   0.833 -0.0170 -0.3634  0.0283
 6304PW      WP23847   4.317  11.891   0.897  0.0598 -0.6817 -0.2500
 6304PW      WM23848   4.070  11.947   0.888 -0.2132 -0.4924 -0.3412
 6305PW       W23849   9.245   8.910  12.628  0.1857 -0.0397 -0.4735
 6305PW      WP23850   9.261   8.814  12.728 -0.3154  0.5263  0.1961
 6305PW      WM23851   9.239   8.975  12.504 -0.4748  0.0848 -0.3924
 6306PW       W23852   5.990   5.748   3.113  0.1430  0.1316  0.0377
 6306PW      WP23853   6.098   5.663   3.139 -0.1775 -0.4255 -0.3340
 6306PW      WM23854   5.944   5.642   3.192  0.5228 -0.3054 -0.3022
 6307PW       W23855   8.292   4.583   4.839  0.1060 -0.1098 -0.1239
 6307PW      WP23856   8.352   4.485   4.919 -0.3714 -0.5163 -0.2341
 6307PW      WM23857   8.248   4.534   4.715 -0.4210 -0.2504  0.1048
 6308PW       W23858   3.090   8.502   2.758 -0.2040  0.4263 -0.1694
 6308PW      WP23859   3.184   8.506   2.861  0.3353  0.4762 -0.6442
 6308PW      WM23860   3.105   8.496   2.619 -0.1190 -0.2550 -0.1513
 6309PW       W23861   9.818   4.384  11.716  0.2685  0.3134  0.1117
 6309PW      WP23862   9.852   4.304  11.606 -0.1818 -0.1863  0.3154
 6309PW      WM23863   9.864   4.515  11.693 -0.1994  0.4651 -0.0261
 6310PW       W23864   2.240   6.774   0.912 -0.3005  0.0478 -0.4846
 6310PW      WP23865   2.246   6.634   0.918 -0.0387  0.0345 -0.8628
 6310PW      WM23866   2.265   6.808   0.779  0.4931  0.2368 -0.3185
 6311PW       W23867   2.148   6.062  11.201  0.1495  0.0796  0.0482
 6311PW      WP23868   2.074   6.174  11.164 -0.0276 -0.1445 -0.2937
 6311PW      WM23869   2.179   5.997  11.081  0.1078 -0.0760  0.1201
 6312PW       W23870   1.454   0.726  10.413  0.2183 -0.0443  0.2806
 6312PW      WP23871   1.336   0.801  10.407  0.3494  0.1392 -0.3570
 6312PW      WM23872   1.437   0.591  10.379 -0.4674  0.1047 -0.0472
 6313PW       W23873   9.720   6.530   8.397  0.1602 -0.0236  0.0563
 6313PW      WP23874   9.811   6.424   8.406  0.3278  0.1029 -0.1097
 6313PW      WM23875   9.588   6.577   8.401  0.2956  0.3622  0.5859
 6314PW       W23876   7.544   4.509   2.079 -0.2999  0.4110 -0.0637
 6314PW      WP23877   7.664   4.579   2.100  0.0335 -0.2323  0.3403
 6314PW      WM23878   7.500   4.641   2.065 -0.6170  0.2933 -0.2396
 6315PW       W23879  11.609  10.058   1.871 -0.1320 -0.2251 -0.2915
 6315PW      WP23880  11.711  10.098   1.784  0.1345  0.4110  0.2630
 6315PW      WM23881  11.535  10.032   1.987 -0.0390  0.1357 -0.1460
 6316PW       W23882   0.601   0.411   9.390 -0.5673 -0.1134  0.7753
 6316PW      WP23883   0.689   0.464   9.485  0.0456 -0.2137  0.2961
 6316PW      WM23884   0.617   0.550   9.396  0.0104 -0.1500  0.4186
 6317PW       W23885   3.169   8.398  12.898  0.1858  0.4433  0.3404
 6317PW      WP23886   3.140   8.434  12.766 -0.2497 -0.9693 -0.0415
 6317PW      WM23887   3.291   8.338  12.932 -0.1082 -0.2616  0.2493
 6318PW       W23888   0.429   4.405   1.580  0.0876 -0.3324 -0.0657
 6318PW      WP23889   0.477   4.525   1.526 -0.4696 -0.1762 -0.2399
 6318PW      WM23890   0.530   4.309   1.596  0.0602 -0.2772  0.5933
 6319PW       W23891   4.405   4.328   3.572 -0.2044  0.1315  0.2160
 6319PW      WP23892   4.281   4.389   3.547 -0.0146  0.4511  0.0184
 6319PW      WM23893   4.451   4.199   3.603 -0.2796  0.0506  0.0028
 6320PW       W23894   7.381  11.446   0.370 -0.2085 -0.2380  0.2385
 6320PW      WP23895   7.364  11.565   0.442  0.0575  0.0000 -0.0742
 6320PW      WM23896   7.301  11.395   0.267 -0.3568  0.7272 -0.1818
 6321PW       W23897   1.644  11.649   0.079 -0.4721 -0.0262  0.2914
 6321PW      WP23898   1.630  11.666  -0.060 -0.2371 -0.1626  0.2479
 6321PW      WM23899   1.635  11.556   0.183  0.2084 -0.0977  0.3098
 6322PW       W23900   5.384   3.425   9.428  0.5805  0.4404  0.0912
 6322PW      WP23901   5.407   3.556   9.471 -0.1229  0.5276  0.2789
 6322PW      WM23902   5.291   3.413   9.323  0.6906  0.3080  0.0069
 6323PW       W23903   5.976   8.164   1.394  0.0811 -0.0292  0.0665
 6323PW      WP23904   5.872   8.136   1.304  0.5823  0.1939 -0.6299
 6323PW      WM23905   5.932   8.139   1.263 -0.4015  0.3157  0.1520
 6324PW       W23906  11.530   4.948  12.323 -0.0180 -0.1129 -0.1242
 6324PW      WP23907  11.668   4.928  12.315 -0.0290 -0.5504  0.4527
 6324PW      WM23908  11.619   4.841  12.306 -0.1020 -0.1373 -0.4542
 6325PW       W23909   3.623   1.427   1.905 -0.1307  0.2011  0.5187
 6325PW      WP23910   3.531   1.505   1.834  0.0374 -0.1863 -0.1769
 6325PW      WM23911   3.652   1.457   1.771  0.2579 -0.0808  0.5312
 6326PW       W23912   2.993   7.345  10.496 -0.4657 -0.0033 -0.2158
 6326PW      WP23913   3.085   7.239  10.490 -0.3747 -0.0119  0.6511
 6326PW      WM23914   3.035   7.323  10.364 -0.2986  0.1808 -0.1961
 6327PW       W23915   8.182   3.773  10.321  0.1451  0.1059 -0.7918
 6327PW      WP23916   8.250   3.877  10.385 -0.0264 -0.2917  0.1246
 6327PW      WM23917   8.222   3.764  10.188  0.0188 -0.3970 -0.8054
 6328PW       W23918   2.204   2.365   5.468  0.0856 -0.6371 -0.1985
 6328PW      WP23919   2.095   2.325   5.390 -0.3716  0.0972  0.0163
 6328PW      WM23920   2.317   2.386   5.388  0.0332  0.1483 -0.1064
 6329PW       W23921   5.285   1.845   3.668  0.1925 -0.1494 -0.5022
 6329PW      WP23922   5.281   1.939   3.564 -0.0684 -0.1552 -0.4994
 6329PW      WM23923   5.383   1.881   3.762 -0.2641  0.0202 -0.0701
 6330PW       W23924   6.487   7.588  12.641  0.1585  0.5577  0.0400
 6330PW      WP23925   6.612   7.536  12.677 -0.1351  0.0540  0.3688
 6330PW      WM23926   6.426   7.634  12.523  0.4316  0.7484 -0.0321
 6331PW       W23927   5.612   8.492   9.966  0.2116  0.1539 -0.4960
 6331PW      WP23928   5.672   8.377  10.019  0.1208  0.3980  0.1829
 6331PW      WM23929   5.679   8.599   9.907  0.0847  0.7411  0.3289
 6332PW       W23930   1.476   6.890   1.808 -0.1638 -0.2759 -0.1955
 6332PW      WP23931   1.468   7.027   1.835 -0.0143 -0.3070  0.0194
 6332PW      WM23932   1.611   6.862   1.783 -0.1247 -0.1716 -0.1082
 6333PW       W23933  10.761   1.606   9.256 -0.2514  0.3050 -0.3266
 6333PW      WP23934  10.876   1.591   9.334 -0.0414 -0.2935 -0.7119
 6333PW      WM23935  10.688   1.559   9.145 -0.3226 -0.0673 -0.1306
 6334PW       W23936   4.279   3.426   1.987  0.3590  0.4424  0.1190
 6334PW      WP23937   4.209   3.453   1.869  0.1514 -0.1593  0.0880
 6334PW      WM23938   4.376   3.358   1.912 -0.2507 -0.6387  0.2149
 6335PW       W23939   9.855   9.487   3.519  0.3500  0.3409  0.2656
 6335PW      WP23940   9.952   9.532   3.429  0.0568  0.3659 -0.0480
 6335PW      WM23941   9.829   9.619   3.558 -0.0788  0.4208 -0.2258
 6336PW       W23942   6.786   9.818  11.174 -0.4497 -0.5884 -0.0925
 6336PW      WP23943   6.773   9.726  11.278 -0.0716 -0.4021  0.1292
 6336PW      WM23944   6.841   9.773  11.053  0.2179  0.3720 -0.2037
 6337PW       W23945   6.303  10.401   4.849 -0.1601 -0.1145  0.1727
 6337PW      WP23946   6.430  10.350   4.818 -0.2296  0.0863 -0.5472
 6337PW      WM23947   6.292  10.540   4.860 -0.2012 -0.1082  0.0625
 6338PW       W23948  -0.018   6.519  13.187  0.3867 -0.1856  0.0175
 6338PW      WP23949   0.063   6.633  13.172  0.0506  0.0598  0.0152
 6338PW      WM23950   0.022   6.434  13.290  0.2680 -0.1651  0.0806
 6339PW       W23951   1.560   2.981  10.131 -0.0515  0.3551  0.1914
 6339PW      WP23952   1.500   3.077  10.048 -0.1820  0.5527  0.5036
 6339PW      WM23953   1.486   2.924  10.027  0.3167  0.0881  0.0673
 6340PW       W23954  11.718  11.835   4.913 -0.2462  0.0440  0.0809
 6340PW      WP23955  11.627  11.814   4.809  0.0137 -0.0133 -0.1406
 6340PW      WM23956  11.758  11.924   5.014 -0.2120  0.4330 -0.2613
 6341PW       W23957   0.401   2.261   3.422  0.1393 -0.1261  0.3625
 6341PW      WP23958   0.275   2.254   3.362 -0.0320 -0.0251  0.7024
 6341PW      WM23959   0.377   2.308   3.551 -0.2018 -0.3479  0.3854
 6342PW       W23960  11.903   5.227   1.786 -0.0643 -0.1525 -0.1284
 6342PW      WP23961  11.773   5.176   1.801  0.0016 -0.2361  0.2149
 6342PW      WM23962  11.993   5.327   1.825  0.3620 -0.4448 -0.3189
 6343PW       W23963   9.208   0.341   2.004  0.0220  0.4104 -0.3475
 6343PW      WP23964   9.152   0.240   1.925 -0.0515  0.5873 -0.5246
 6343PW      WM23965   9.317   0.270   2.056 -0.1703  0.2149 -0.2015
 6344PW       W23966   5.876   5.091   9.306  0.3953  0.0404 -0.0135
 6344PW      WP23967   5.854   5.142   9.435  0.5068  0.1988 -0.0557
 6344PW      WM23968   5.767   5.010   9.337  0.3204  0.0636 -0.2104
 6345PW       W23969   0.524   9.291   2.332  0.0945 -0.0363  0.1928
 6345PW      WP23970   0.481   9.293   2.465 -0.6112  0.1355 -0.0174
 6345PW      WM23971   0.661   9.321   2.332  0.1613 -0.3170 -0.0289
 6346PW       W23972   9.357   1.849   5.384  0.3699 -0.0319 -0.0209
 6346PW      WP23973   9.255   1.864   5.289  0.3178  0.0070  0.0408
 6346PW      WM23974   9.455   1.939   5.428 -0.0020  0.5434 -0.3039
 6347PW       W23975   7.543   4.709   9.897 -0.2246  0.2522 -0.1353
 6347PW      WP23976   7.523   4.577   9.854  0.1975  0.2086 -0.2242
 6347PW      WM23977   7.546   4.760  10.027 -0.0106 -0.0131 -0.0293
 6348PW       W23978   3.263   4.130   4.320 -0.0048  0.3607 -0.2099
 6348PW      WP23979   3.330   4.032   4.395  0.1018  0.4470 -0.1911
 6348PW      WM23980   3.142   4.134   4.249 -0.2895  0.3082  0.2537
 6349PW       W23981  11.313   4.263   4.452 -0.1273 -0.0918  0.1600
 6349PW      WP23982  11.274   4.252   4.586  0.4494 -0.1056  0.3411
 6349PW      WM23983  11.196   4.202   4.405 -0.2759  0.1615  0.1850
 6350PW       W23984  10.819   3.484   1.740 -0.0157  0.2468  0.1995
 6350PW      WP23985  10.913   3.535   1.650  0.5342 -0.4044  0.3630
 6350PW      WM23986  10.752   3.440   1.854  0.1001 -0.2912  0.0726
 6351PW       W23987   8.928   8.879  13.014  0.3249  0.2600  0.0661
 6351PW      WP23988   9.053   8.861  13.074  0.3791  0.1951 -0.0649
 6351PW      WM23989   8.879   8.910  13.142 -0.0551  0.3176 -0.0860
 6352PW       W23990   1.720   9.534  13.054 -0.2740 -0.1338  0.0532
 6352PW      WP23991   1.814   9.514  13.155 -0.2783 -0.3113  0.0236
 6352PW      WM23992   1.622   9.494  12.961 -0.2520  0.0554 -0.0545
 6353PW       W23993   1.068  10.249   5.358  0.2228 -0.0329 -0.0456
 6353PW      WP23994   1.047  10.132   5.432  0.1833  0.0298  0.0425
 6353PW      WM23995   1.193  10.245   5.422  0.2111 -0.2406 -0.0312
 6354PW       W23996   1.228   1.521  11.532 -0.1512 -0.4479  0.1509
 6354PW      WP23997   1.201   1.506  11.395 -0.3965  0.3420  0.0888
 6354PW      WM23998   1.225   1.452  11.653 -0.1909  0.2299  0.5587
 6355PW       W23999   2.164  10.455   2.981  0.1629 -0.2284  0.0634
 6355PW      WP24000   2.115  10.545   2.887  0.1466 -0.2024  0.0965
 6355PW      WM24001   2.079  10.477   3.090 -0.4226  0.2562 -0.4554
 6356PW       W24002   6.919   1.655   9.762 -0.0167  0.4273 -0.0340
 6356PW      WP24003   6.920   1.559   9.660  0.2954  0.0527  0.3058
 6356PW      WM24004   7.055   1.665   9.728 -0.0944  0.1471 -0.4609
 6357PW       W24005   8.528   8.462   9.801  0.1784 -0.0863 -0.0083
 6357PW      WP24006   8.580   8.448   9.672  0.1145  0.0329 -0.0478
 6357PW      WM24007   8.459   8.581   9.826  0.6138  0.1770 -0.0217
 6358PW       W24008   4.083   7.767   0.372 -0.1413 -0.1560 -0.6001
 6358PW      WP24009   3.949   7.758   0.334 -0.3472 -0.2380  0.0831
 6358PW      WM24010   4.063   7.679   0.265 -0.3086 -0.5749 -0.2389
 6359PW       W24011   4.393   0.203  10.572 -0.1067 -0.4486 -0.3107
 6359PW      WP24012   4.293   0.301  10.570 -0.2140 -0.5547 -0.2328
 6359PW      WM24013   4.490   0.283  10.634 -0.3864 -0.2982 -0.0528
 6360PW       W24014   6.573   3.477   9.631  0.2169 -0.0563  0.5903
 6360PW      WP24015   6.450   3.444   9.689 -0.1291 -0.3468 -0.2264
 6360PW      WM24016   6.559   3.349   9.575 -0.2262  0.2976 -0.1925
 6361PW       W24017   4.643  11.193  12.106 -0.3597 -0.2932 -0.3220
 6361PW      WP24018   4.612  11.115  12.218 -0.7127  0.3283  0.0389
 6361PW      WM24019   4.610  11.315  12.166  0.4882 -0.1190 -0.1536
 6362PW       W24020   1.586  11.489   0.505 -0.5537 -0.1253  0.0431
 6362PW      WP24021   1.569  11.512   0.368 -0.0102 -0.0712 -0.0285
 6362PW      WM24022   1.630  11.396   0.599 -0.0673  0.0123 -0.0350
 6363PW       W24023   3.371   1.310  10.626  0.1847  0.0366 -0.5695
 6363PW      WP24024   3.472   1.272  10.715 -0.3593  0.1548  0.1334
 6363PW      WM24025   3.260   1.395  10.636 -0.3953 -0.7337  0.4207
 6364PW       W24026   4.180   6.829   0.147  0.3229  0.4296  0.2245
 6364PW      WP24027   4.269   6.891   0.059  0.0357  0.4324 -0.0739
 6364PW      WM24028   4.211   6.694   0.122 -0.4577  0.2909 -0.1446
 6365PW       W24029  11.644   9.411  11.179 -0.0436  0.1201  0.0578
 6365PW      WP24030  11.694   9.291  11.231 -0.2928 -0.1318 -0.2620
 6365PW      WM24031  11.740   9.509  11.205  0.4620 -0.2397 -0.3676
 6366PW       W24032   4.125   1.003  10.972 -0.2157  0.4690  0.0786
 6366PW      WP24033   4.170   0.888  11.037  0.0043  0.3295 -0.3040
 6366PW      WM24034   4.248   0.961  11.022 -0.3077 -0.4932 -0.3815
 6367PW       W24035   0.343   8.253   2.516  0.0012  0.4095 -0.4300
 6367PW      WP24036   0.476   8.276   2.480  0.1461 -0.2962 -0.4317
 6367PW      WM24037   0.285   8.130   2.482 -0.2287  0.2634  0.3691
 6368PW       W24038   6.010   7.965  12.633 -0.1497  0.3872 -0.0530
 6368PW      WP24039   6.065   7.934  12.507  0.0556 -0.2074  0.1647
 6368PW      WM24040   6.062   8.056  12.725  0.4364  0.1260 -0.0992
 6369PW       W24041   7.078  10.014   0.547 -0.3321  0.3988 -0.1286
 6369PW      WP24042   7.131  10.131   0.491 -0.2620  0.4033 -0.0534
 6369PW      WM24043   7.052  10.006   0.410 -0.6983  0.3123 -0.0577
 6370PW       W24044   6.034   1.695   0.428  0.0125 -0.0496  0.5435
 6370PW      WP24045   6.141   1.746   0.503  0.4305 -0.1463  0.0326
 6370PW      WM24046   6.023   1.632   0.304 -0.1642  0.6662  0.1635
 6371PW       W24047  10.776  10.940   4.298 -0.3736 -0.1852  0.0082
 6371PW      WP24048  10.729  10.811   4.326  0.0816 -0.3110  0.2473
 6371PW      WM24049  10.769  11.051   4.383  0.6208  0.3659 -0.5300
 6372PW       W24050  11.965  11.953   4.200 -0.0577 -0.3736  0.0739
 6372PW      WP24051  11.896  12.069   4.236  0.3136 -0.0389 -0.2376
 6372PW      WM24052  11.882  11.953   4.087 -0.0682 -0.6237  0.0780
 6373PW       W24053   5.065   5.669   8.692 -0.0889  0.0647  0.2448
 6373PW      WP24054   5.163   5.579   8.649 -0.1829  0.1099 -0.0785
 6373PW      WM24055   5.058   5.804   8.728 -0.1138  0.2253 -0.3151
 6374PW       W24056   1.479   3.020   0.539  0.1836 -0.0737  0.0764
 6374PW      WP24057   1.357   3.055   0.479  0.2958  0.1376 -0.0345
 6374PW      WM24058   1.553   2.967   0.646  0.1108  0.4773  0.4156
 6375PW       W24059   7.609   2.056  12.209  0.1852  0.0502  0.0385
 6375PW      WP24060   7.588   2.193  12.191  0.1390  0.0679  0.2165
 6375PW      WM24061   7.642   1.993  12.089  0.0193 -0.5231  0.2764
 6376PW       W24062   0.683   1.373   1.911  0.0582  0.4265 -0.5258
 6376PW      WP24063   0.649   1.303   1.795  0.3972 -0.2179 -0.2669
 6376PW      WM24064   0.606   1.404   2.024 -0.1836  0.1840 -0.6168
 6377PW       W24065   6.603   9.151   8.693 -0.5049 -0.0767 -0.0849
 6377PW      WP24066   6.637   9.263   8.615  0.2237  0.4205  0.8420
 6377PW      WM24067   6.624   9.125   8.829  0.0705  0.2374 -0.0978
 6378PW       W24068   5.211   0.447   0.652 -0.6185  0.3256 -0.2177
 6378PW      WP24069   5.212   0.407   0.786  0.2963  0.1805 -0.2380
 6378PW      WM24070   5.212   0.458   0.513 -0.4757  0.2568 -0.2234
 6379PW       W24071   0.096   2.145   0.331  0.2627  0.0829  0.4653
 6379PW      WP24072   0.173   2.256   0.293  0.1718  0.1804  0.5649
 6379PW      WM24073   0.071   2.049   0.430  0.0072 -0.0316  0.2948
 6380PW       W24074   7.489   4.843   3.355 -0.1108  0.3215  0.4744
 6380PW      WP24075   7.394   4.937   3.315  0.0043  0.3751  0.3217
 6380PW      WM24076   7.620   4.879   3.389  0.0604  0.3533 -0.1564
 6381PW       W24077   3.856   9.798   9.531 -0.1467 -0.3526 -0.1690
 6381PW      WP24078   3.970   9.719   9.550 -0.0470 -0.1319  0.1843
 6381PW      WM24079   3.817   9.745   9.654  0.6359 -0.4604  0.0645
 6382PW       W24080   4.941   1.949   1.586  0.1691 -0.3598 -0.3282
 6382PW      WP24081   4.802   1.930   1.593  0.1093  0.1153  0.6777
 6382PW      WM24082   4.941   1.832   1.663  0.2608 -0.2740 -0.1949
 6383PW       W24083   4.463   4.557  11.105  0.4237 -0.0559 -0.0285
 6383PW      WP24084   4.486   4.419  11.113  0.1539 -0.0886  0.2833
 6383PW      WM24085   4.416   4.689  11.108  0.1477 -0.1455 -0.2195
 6384PW       W24086   7.975   4.631   2.180 -0.4500  0.0838  0.1576
 6384PW      WP24087   8.110   4.650   2.149 -0.3145 -1.0544 -0.1911
 6384PW      WM24088   7.838   4.607   2.159 -0.3443 -0.2523 -0.2347
 6385PW       W24089   0.528   5.942   0.523 -0.1075  0.0534  0.0284
 6385PW      WP24090   0.474   5.953   0.651  0.7410  0.5971  0.3768
 6385PW      WM24091   0.522   5.819   0.590  0.7655 -0.1623 -0.2233
 6386PW       W24092   0.406   9.507  10.981  0.4576 -0.0341  0.2068
 6386PW      WP24093   0.449   9.376  11.007 -0.0354 -0.2012  0.2282
 6386PW      WM24094   0.438   9.573  10.862  0.5584 -0.5439 -0.0643
 6387PW       W24095  11.877   3.293  10.682 -0.1874  0.1308  0.3626
 6387PW      WP24096  11.779   3.215  10.620  0.2565 -0.3156  0.1861
 6387PW      WM24097  11.889   3.386  10.578 -0.0052  0.0195  0.2813
 6388PW       W24098   4.755   0.532   4.801  0.2806 -0.1130  0.2721
 6388PW      WP24099   4.706   0.555   4.930  0.1099 -0.3442  0.2528
 6388PW      WM24100   4.766   0.671   4.812  0.4304 -0.0881 -0.1086
 6389PW       W24101  10.639   3.241  10.115  0.1767  0.2747  0.4619
 6389PW      WP24102  10.612   3.336  10.017 -0.2817 -0.1159  0.1854
 6389PW      WM24103  10.632   3.195  10.248  0.0239  0.2402  0.4433
 6390PW       W24104   2.077  10.687   3.703  0.2661 -0.2724  0.2279
 6390PW      WP24105   2.197  10.655   3.767  0.3756 -0.0956  0.1156
 6390PW      WM24106   2.065  10.763   3.820 -0.0241 -0.7570  0.5342
 6391PW       W24107  11.505  11.392   4.912  0.2577  0.0291  0.0582
 6391PW      WP24108  11.639  11.413   4.877  0.1119  0.3852 -0.3267
 6391PW      WM24109  11.467  11.259   4.932 -0.3164  0.1309 -0.2424
 6392PW       W24110   0.248   1.858  10.123 -0.0984 -0.3624  0.0505
 6392PW      WP24111   0.386   1.837  10.124 -0.0994 -0.4144 -0.2318
 6392PW      WM24112   0.307   1.779  10.023 -0.1989 -0.3654 -0.0074
 6393PW       W24113   3.993   2.731   2.924 -0.2099  0.1334 -0.0248
 6393PW      WP24114   4.014   2.822   3.028  0.8933  0.1431 -0.2008
 6393PW      WM24115   3.956   2.858   2.879 -0.3196  0.2111  0.2775
 6394PW       W24116   8.801  10.173  11.655  0.4225  0.4244  0.1000
 6394PW      WP24117   8.905  10.122  11.576  0.2652  0.0780  0.1074
 6394PW      WM24118   8.695  10.231  11.584  0.2615  0.0454  0.0208
 6395PW       W24119   7.042   0.968   9.170 -0.1719 -0.1228  0.0693
 6395PW      WP24120   7.173   0.991   9.125 -0.1909  0.2972  0.1999
 6395PW      WM24121   7.045   0.881   9.280  0.4488  0.2831  0.4050
 6396PW       W24122   8.205   7.856  13.222 -0.3581 -0.0739 -0.3910
 6396PW      WP24123   8.155   7.977  13.173  0.0880  0.1103 -0.4131
 6396PW      WM24124   8.338   7.867  13.178  0.0343 -0.1893  0.6196
 6397PW       W24125   9.468   1.962  10.370  0.1473  0.6309  0.1548
 6397PW      WP24126   9.424   1.840  10.317 -0.2406  0.7976  0.0751
 6397PW      WM24127   9.375   2.042  10.303 -0.0129  0.1456 -0.2319
 6398PW       W24128   3.013  12.073   9.749  0.0702 -0.1173 -0.5549
 6398PW      WP24129   3.040  11.946   9.800 -0.0605 -0.1735 -0.6242
 6398PW      WM24130   2.987  12.210   9.736  0.0073 -0.0485  0.1184
 6399PW       W24131   1.558   0.375   4.042 -0.3965 -0.3834  0.2159
 6399PW      WP24132   1.596   0.279   3.946  0.1233 -0.1336  0.1531
 6399PW      WM24133   1.506   0.503   4.061  0.0988 -0.1870  0.3140
 6400PW       W24134  11.802   4.407   2.296 -0.0222  0.0773 -0.0995
 6400PW      WP24135  11.717   4.517   2.284  0.1652  0.2406  0.0258
 6400PW      WM24136  11.710   4.356   2.204 -0.0719 -0.3006  0.1469
 6401PW       W24137   4.952   9.974   8.469 -0.1229  0.2332 -0.0037
 6401PW      WP24138   5.005   9.879   8.557 -0.2469  0.4473  0.3106
 6401PW      WM24139   4.890   9.985   8.594  0.0742  0.3057  0.0887
 6402PW       W24140  10.084   8.153  10.897  0.0912  0.0315  0.3457
 6402PW      WP24141   9.948   8.174  10.872  0.1903  0.0786 -0.2149
 6402PW      WM24142  10.186   8.072  10.948 -0.2028 -0.0766  0.7891
 6403PW       W24143  12.020   6.071   1.996 -0.3283 -0.1998  0.0632
 6403PW      WP24144  11.937   6.143   2.083 -0.3235  0.0896 -0.1667
 6403PW      WM24145  12.055   6.194   1.941 -0.2802 -0.1498  0.2016
 6404PW       W24146   9.976   5.103   8.289 -0.2927 -0.0584 -0.0839
 6404PW      WP24147   9.867   5.186   8.316 -0.1043  0.1337  0.1047
 6404PW      WM24148  10.040   5.126   8.411 -0.4392  0.0528 -0.0278
 6405PW       W24149   4.331   8.855   1.196 -0.4210  0.2872 -0.4292
 6405PW      WP24150   4.323   8.717   1.175  0.1916  0.0931  0.3810
 6405PW      WM24151   4.330   8.912   1.324  0.0098 -0.0853 -0.2465
 6406PW       W24152   7.664   6.410   4.602 -0.3559 -0.0245  0.3109
 6406PW      WP24153   7.665   6.361   4.471 -0.0433 -0.1364  0.3493
 6406PW      WM24154   7.700   6.545   4.591 -0.6143  0.0135 -0.1556
 6407PW       W24155  11.356   8.589   9.408 -0.0838 -0.0974 -0.7849
 6407PW      WP24156  11.480   8.651   9.388  0.1286 -0.0242  0.4152
 6407PW      WM24157  11.343   8.531   9.535  0.3265  0.2974 -0.5489
 6408PW       W24158  10.532   1.202   1.351 -0.1500  0.3437 -0.3469
 6408PW      WP24159  10.660   1.256   1.368 -0.0153 -0.1516  0.4137
 6408PW      WM24160  10.494   1.160   1.223 -0.0553 -0.5361 -0.1191
 6409PW       W24161   6.140   5.645   5.185 -0.0972 -0.0197 -0.2659
 6409PW      WP24162   6.007   5.671   5.219 -0.0269  0.0608 -0.0366
 6409PW      WM24163   6.174   5.529   5.115  0.6407 -0.0439  0.0802
 6410PW       W24164   5.873  11.473  10.609  0.0446 -0.1425  0.1402
 6410PW      WP24165   5.762  11.538  10.554 -0.0412 -0.0808  0.3775
 6410PW      WM24166   5.978  11.478  10.517 -0.0175 -0.1049  0.0714
 6411PW       W24167  10.943   9.326  12.842 -0.4397  0.3977  0.0027
 6411PW      WP24168  10.936   9.202  12.777  0.1747  0.3697 -0.0478
 6411PW      WM24169  10.964   9.398  12.724 -0.1704  0.1529 -0.1071
 6412PW       W24170   2.415   1.987   0.102  0.2232  0.0142  0.1290
 6412PW      WP24171   2.394   2.040  -0.026  0.1411  0.0451  0.1549
 6412PW      WM24172   2.446   1.997   0.238  0.2635  0.5537  0.0928
 6413PW       W24173   7.635   1.462   3.335 -0.1806 -0.1792 -0.3541
 6413PW      WP24174   7.525   1.511   3.262 -0.0271  0.2482 -0.3119
 6413PW      WM24175   7.701   1.417   3.220 -0.2026 -0.5495 -0.2304
 6414PW       W24176   7.359   1.488   0.913  0.0537 -0.3587  0.4294
 6414PW      WP24177   7.479   1.560   0.913 -0.2690  0.2133  0.0944
 6414PW      WM24178   7.270   1.418   0.996 -0.3377 -0.4878 -0.0698
 6415PW       W24179   2.849  10.355   0.088 -0.0906 -0.2789 -0.3719
 6415PW      WP24180   2.986  10.381   0.090 -0.1587  0.1152 -0.1506
 6415PW      WM24181   2.766  10.260   0.147 -0.5568  0.1796 -0.2465
 6416PW       W24182   6.077   2.351   2.035  0.0362  0.0958  0.3201
 6416PW      WP24183   5.955   2.419   2.050 -0.0436  0.0629 -0.1139
 6416PW      WM24184   6.150   2.417   2.135 -0.0605  0.3601  0.2211
 6417PW       W24185  11.277   1.435   0.886  0.0556 -0.0231 -0.0700
 6417PW      WP24186  11.140   1.411   0.869  0.0522  0.1308 -0.2788
 6417PW      WM24187  11.242   1.428   1.021 -0.5777 -0.5953 -0.2335
 6418PW       W24188  10.638  10.401   9.739  0.1180 -0.1986  0.2900
 6418PW      WP24189  10.522  10.464   9.788  0.1112 -0.4358  0.5905
 6418PW      WM24190  10.761  10.451   9.696 -0.0649 -0.1479 -0.2140
 6419PW       W24191   4.174   0.307   3.203 -0.0107 -0.1740  0.1984
 6419PW      WP24192   4.245   0.193   3.162  0.3655  0.1692 -0.1620
 6419PW      WM24193   4.060   0.251   3.262  0.1583 -0.3935  0.3262
 6420PW       W24194   6.376   5.936  12.793  0.3643  0.1770  0.3929
 6420PW      WP24195   6.313   5.891  12.677  0.7428 -0.2503  0.3394
 6420PW      WM24196   6.375   5.991  12.664 -0.0057 -0.3227  0.1696
 6421PW       W24197   4.231   6.273   0.113  0.0806 -0.3295 -0.2289
 6421PW      WP24198   4.166   6.395   0.138  0.5105 -0.1714  0.1897
 6421PW      WM24199   4.301   6.368   0.038 -0.1952  0.0121 -0.0727
 6422PW       W24200   1.548   0.238   0.331  0.0782 -0.2377  0.5741
 6422PW      WP24201   1.560   0.376   0.344 -0.3582 -0.0571 -0.4992
 6422PW      WM24202   1.559   0.147   0.225 -0.6092  0.4440 -0.1430
 6423PW       W24203   7.732   0.136   1.153 -0.4323 -0.0858  0.0534
 6423PW      WP24204   7.647   0.053   1.228 -0.2835 -0.3106 -0.0207
 6423PW      WM24205   7.795   0.033   1.082 -0.4214 -0.1748  0.1907
 6424PW       W24206   5.814  10.475  12.561 -0.0950 -0.3495 -0.4589
 6424PW      WP24207   5.704  10.558  12.536 -0.3219 -0.3266  0.4269
 6424PW      WM24208   5.859  10.396  12.668  0.2698 -0.1305 -0.4413
 6425PW       W24209   5.748   2.070   8.978 -0.5359  0.0795 -0.0597
 6425PW      WP24210   5.744   2.077   9.118  0.2405  0.1615 -0.0183
 6425PW      WM24211   5.768   2.179   8.894 -0.5702  0.5092  0.4626
 6426PW       W24212  10.747   5.344  12.656  0.5996  0.0624  0.2197
 6426PW      WP24213  10.758   5.235  12.568  0.0615  0.3694 -0.2640
 6426PW      WM24214  10.652   5.427  12.718 -0.0732  0.1071 -0.7533
 6427PW       W24215  11.788   2.020   4.129 -0.2760 -0.1852 -0.5327
 6427PW      WP24216  11.651   2.004   4.106 -0.4298 -0.2047  0.2557
 6427PW      WM24217  11.856   2.092   4.029  0.4840  0.0216  0.0841
 6428PW       W24218   8.916   6.703   8.674  0.3541  0.4063 -0.2295
 6428PW      WP24219   9.034   6.636   8.642  0.2649  0.1938 -0.1245
 6428PW      WM24220   8.780   6.736   8.674  0.1618 -0.2899  0.0643
 6429PW       W24221   8.604   6.611   1.201  0.0668  0.1443 -0.1507
 6429PW      WP24222   8.695   6.666   1.292  0.0738 -0.2880  0.1208
 6429PW      WM24223   8.544   6.486   1.223  0.5383 -0.0561  0.0835
 6430PW       W24224   4.668  11.979   1.188 -0.1309  0.4144  0.2647
 6430PW      WP24225   4.760  12.081   1.214  0.3412 -0.0962  0.7349
 6430PW      WM24226   4.592  12.078   1.250 -0.6349 -0.1769  0.6524
 6431PW       W24227  10.281   4.711   0.520 -0.0243  0.3445 -0.1509
 6431PW      WP24228  10.273   4.614   0.420  0.6131  0.1365 -0.0230
 6431PW      WM24229  10.289   4.680   0.384  0.3548 -0.1119 -0.0368
 6432PW       W24230   6.245   1.298  10.003 -0.1388  0.1648  0.1432
 6432PW      WP24231   6.278   1.268  10.136 -0.0354 -0.6772 -0.0431
 6432PW      WM24232   6.110   1.267   9.984 -0.1321  0.0417  0.2873
 6433PW       W24233  10.191   2.479  10.621  0.2341  0.1514 -0.0603
 6433PW      WP24234  10.262   2.379  10.689 -0.2442  0.0279  0.2792
 6433PW      WM24235  10.131   2.531  10.736 -0.1088  0.1005 -0.2099
 6434PW       W24236   4.345   7.054   3.661  0.1503  0.1727 -0.1745
 6434PW      WP24237   4.251   7.144   3.714  0.0575 -0.2754  0.4728
 6434PW      WM24238   4.363   6.920   3.625  0.3878  0.0084  0.5018
 6435PW       W24239   8.804   7.810   3.802 -0.2003 -0.0136  0.0559
 6435PW      WP24240   8.704   7.857   3.717 -0.0319 -0.0235 -0.1525
 6435PW      WM24241   8.890   7.819   3.692 -0.2550  0.0668  0.0196
 6436PW       W24242  10.676   6.133   1.191  0.3914  0.2603  0.0501
 6436PW      WP24243  10.771   6.073   1.276  0.1211 -0.1643  0.0672
 6436PW      WM24244  10.813   6.139   1.160  0.4495  0.1626  0.2712
 6437PW       W24245  11.977   9.090  11.335  0.0720 -0.1232  0.4592
 6437PW      WP24246  12.117   9.099  11.347  0.0813  0.4376  0.1379
 6437PW      WM24247  11.895   9.171  11.256  0.0053 -0.3894  0.2512
 6438PW       W24248   1.527   0.788   0.927  0.5996  0.0319 -0.1935
 6438PW      WP24249   1.595   0.679   0.983  0.1174 -0.1188  0.1384
 6438PW      WM24250   1.581   0.909   0.883  0.1189  0.5410  0.4865
 6439PW       W24251   9.434   3.154   9.702  0.0856 -0.0150 -0.3708
 6439PW      WP24252   9.546   3.229   9.740  0.0202 -0.0079 -0.1841
 6439PW      WM24253   9.476   3.025   9.739 -0.0777  0.0407  0.0395
 6440PW       W24254   8.208   4.087   1.035 -0.1751  0.2352  0.1517
 6440PW      WP24255   8.129   4.202   1.047  0.1376  0.4989 -0.2036
 6440PW      WM24256   8.262   4.027   0.921 -0.3355  0.2685  0.0563
 6441PW       W24257   8.309   4.712  11.144  0.0814 -0.0510 -0.2893
 6441PW      WP24258   8.332   4.791  11.257 -0.1319 -0.0997 -0.2103
 6441PW      WM24259   8.340   4.609  11.233 -0.1210  0.0376 -0.1132
 6442PW       W24260   7.319  12.098  12.756 -0.3220 -0.2638 -0.4259
 6442PW      WP24261   7.287  11.986  12.834  0.1317 -0.1734 -0.0900
 6442PW      WM24262   7.402  12.174  12.840 -0.6542  0.3339 -0.6078
 6443PW       W24263  11.227   2.729  10.788 -0.4245 -0.3758  0.0110
 6443PW      WP24264  11.305   2.642  10.710 -0.1928  0.0021 -0.1928
 6443PW      WM24265  11.277   2.617  10.856 -0.2477 -0.0578  0.4215
 6444PW       W24266   9.080   7.996   4.173  0.5349  0.1617  0.5040
 6444PW      WP24267   9.104   8.114   4.101  0.0387 -0.0828 -0.1086
 6444PW      WM24268   9.099   7.987   4.311  0.7729 -0.2292  0.4532
 6445PW       W24269  12.001   3.834  10.301  0.1545 -0.1457  0.0245
 6445PW      WP24270  11.887   3.788  10.234 -0.0988  0.2575  0.1614
 6445PW      WM24271  12.084   3.722  10.291  0.0137 -0.2724  0.2346
 6446PW       W24272  10.206   0.695  11.467  0.1080 -0.1712  0.0119
 6446PW      WP24273  10.333   0.678  11.523  0.0894 -0.3170  0.0132
 6446PW      WM24274  10.070   0.729  11.463  0.1833  0.1467 -0.0082
 6447PW       W24275   8.087   4.364   2.894 -0.0222 -0.2221 -0.0696
 6447PW      WP24276   8.112   4.391   2.759 -0.0029 -0.7796 -0.1887
 6447PW      WM24277   8.076   4.297   2.772  0.1976  0.1121 -0.2808
 6448PW       W24278   4.233   4.825   4.763 -0.0534 -0.4539  0.1213
 6448PW      WP24279   4.099   4.787   4.777 -0.0467 -0.4194  0.2950
 6448PW      WM24280   4.300   4.843   4.885  0.2723  0.2353 -0.1359
 6449PW       W24281   9.580   9.197  11.339 -0.2667  0.1421  0.2375
 6449PW      WP24282   9.500   9.083  11.334 -0.1637  0.0803 -0.3123
 6449PW      WM24283   9.463   9.253  11.287 -0.2641 -0.2615 -0.2376
 6450PW       W24284   0.254  11.141   4.140 -0.1049  0.2497  0.5025
 6450PW      WP24285   0.313  11.267   4.119 -0.3650  0.4211  0.7605
 6450PW      WM24286   0.123  11.173   4.100  0.0199 -0.1386 -0.3184
 6451PW       W24287   7.885   8.279  10.116 -0.4493 -0.0141 -0.0549
 6451PW      WP24288   7.909   8.359  10.229 -0.1979 -0.0686 -0.0672
 6451PW      WM24289   7.972   8.170  10.119 -0.4864 -0.0479 -0.1707
 6452PW       W24290  10.415   5.498  10.453  0.0065  0.0755 -0.1287
 6452PW      WP24291  10.350   5.374  10.455  0.1948 -0.0258 -0.1088
 6452PW      WM24292  10.540   5.541  10.406  0.4103 -0.6319  0.2055
 6453PW       W24293   3.090  10.555   8.880 -0.0197  0.0903  0.0764
 6453PW      WP24294   3.047  10.684   8.847 -0.1981 -0.1254 -0.6088
 6453PW      WM24295   3.063  10.500   9.006  0.5074  0.4800  0.3809
 6454PW       W24296   1.848  11.309  11.091 -0.2276  0.2646  0.3280
 6454PW      WP24297   1.806  11.226  10.987 -0.8715  0.4907  0.3847
 6454PW      WM24298   1.792  11.218  11.182  0.4174  0.2087  0.7031
 6455PW       W24299   8.399   3.779   2.203 -0.1155 -0.3833 -0.2460
 6455PW      WP24300   8.273   3.840   2.190  0.0403 -0.0811 -0.3757
 6455PW      WM24301   8.405   3.912   2.246 -0.0136 -0.3131 -0.4714
 6456PW       W24302  10.628  10.013   2.056 -0.1046 -0.1448 -0.1308
 6456PW      WP24303  10.714   9.939   1.973  0.4866  0.6533 -0.2899
 6456PW      WM24304  10.648  10.084   2.174 -0.5329  0.4460 -0.3929
 6457PW       W24305  10.777   7.013  12.550 -0.2079 -0.0054 -0.2549
 6457PW      WP24306  10.779   7.079  12.674 -0.2510 -0.6454  0.1055
 6457PW      WM24307  10.836   6.907  12.619  0.3093  0.0231 -0.6287
 6458PW       W24308   1.287   2.969   9.212 -0.2278  0.0351  0.3114
 6458PW      WP24309   1.377   2.875   9.263 -0.2041 -0.3284 -0.3528
 6458PW      WM24310   1.181   2.954   9.121 -0.0190 -0.5846  0.1470
 6459PW       W24311   8.619   8.232  12.224  0.0547  0.1332 -0.1352
 6459PW      WP24312   8.480   8.244  12.239  0.0558 -0.1421  0.1466
 6459PW      WM24313   8.636   8.123  12.310 -0.3835 -0.0507 -0.2691
 6460PW       W24314   8.615   4.041  13.063 -0.1450 -0.0228  0.1326
 6460PW      WP24315   8.499   4.105  13.109 -0.2599 -0.1183 -0.0178
 6460PW      WM24316   8.627   4.103  12.939 -0.0185  0.2383  0.2715
 6461PW       W24317   4.931   8.260   4.229 -0.0818 -0.0936 -0.5102
 6461PW      WP24318   5.061   8.287   4.273 -0.2622  0.1109 -0.0739
 6461PW      WM24319   4.965   8.390   4.191 -0.0797  0.1224  0.1659
 6462PW       W24320   7.984  11.319   1.174  0.0174 -0.3501  0.0184
 6462PW      WP24321   8.010  11.263   1.048  0.2527 -0.3534  0.0652
 6462PW      WM24322   7.852  11.363   1.176  0.1255 -0.0225  0.3194
 6463PW       W24323   3.480   1.998  11.765  0.0046  0.1394 -0.0182
 6463PW      WP24324   3.423   1.911  11.671  0.0776  0.1067 -0.0323
 6463PW      WM24325   3.567   1.923  11.845 -0.0659  0.1377  0.0574
 6464PW       W24326   0.819   4.437  12.895  0.3471 -0.4063 -0.4194
 6464PW      WP24327   0.919   4.499  12.818  0.3303  0.0665 -0.0835
 6464PW      WM24328   0.780   4.454  13.028  0.9750  0.1718 -0.2779
 6465PW       W24329   7.377  10.271   1.926  0.1546 -0.2426 -0.2280
 6465PW      WP24330   7.486  10.233   1.847  0.1444 -0.0158 -0.3558
 6465PW      WM24331   7.412  10.395   1.870  0.1589 -0.0243  0.2298
 6466PW       W24332  10.106   3.131  11.100  0.0190 -0.2090  0.2732
 6466PW      WP24333  10.034   3.103  11.217  0.0434 -0.0572  0.3267
 6466PW      WM24334  10.215   3.154  11.015 -0.1950  0.2622  0.1079
 6467PW       W24335   8.227  10.983  10.666  0.2681 -0.1297  0.1001
 6467PW      WP24336   8.312  11.072  10.733  0.0233 -0.0245  0.2776
 6467PW      WM24337   8.154  10.991  10.546 -0.1314 -0.3138  0.3196
 6468PW       W24338   3.922  11.555   4.005 -0.1224  0.5322  0.1270
 6468PW      WP24339   4.044  11.513   4.058  0.1129  0.3640 -0.5058
 6468PW      WM24340   3.991  11.601   3.893  0.2928  0.1233  0.1998
 6469PW       W24341   8.374   8.730  11.532  0.2499 -0.1717  0.1705
 6469PW      WP24342   8.282   8.665  11.448  0.0210  0.1838  0.1385
 6469PW      WM24343   8.513   8.725  11.515  0.1997  0.0369 -0.4414
 6470PW       W24344   8.800   0.442  11.797  0.1166 -0.0380 -0.0837
 6470PW      WP24345   8.777   0.518  11.681 -0.3712 -0.2030 -0.1059
 6470PW      WM24346   8.747   0.344  11.881  0.2491  0.2283  0.3249
 6471PW       W24347  11.563  11.264   9.175 -0.4142  0.4003  0.0919
 6471PW      WP24348  11.491  11.281   9.294  0.6227  0.2360  0.8149
 6471PW      WM24349  11.675  11.248   9.092 -0.0540  0.3940  0.5559
 6472PW       W24350  12.000  10.294   1.198 -0.2859 -0.0647 -0.3583
 6472PW      WP24351  12.011  10.255   1.332  0.6018  0.1269 -0.3389
 6472PW      WM24352  12.107  10.339   1.118  0.2062 -0.5411 -0.0058
 6473PW       W24353  10.463   1.271   5.379 -0.1287 -0.0068 -0.0764
 6473PW      WP24354  10.536   1.379   5.329  0.3044 -0.1820  0.1541
 6473PW      WM24355  10.416   1.170   5.294 -0.1094 -0.2797  0.2298
 6474PW       W24356   6.874   5.469   9.376  0.0232 -0.1567 -0.0370
 6474PW      WP24357   6.798   5.414   9.273  0.2209 -0.1982 -0.1625
 6474PW      WM24358   6.752   5.537   9.380  0.0063 -0.1982  0.2720
 6475PW       W24359   6.618  10.815  10.426  0.3576 -0.1361  0.1412
 6475PW      WP24360   6.604  10.894  10.541  0.1143 -0.2464  0.1889
 6475PW      WM24361   6.731  10.874  10.367  0.1195  0.5180  0.3017
 6476PW       W24362   0.871   7.736  11.716 -0.2375  0.2247 -0.6394
 6476PW      WP24363   0.789   7.803  11.807  0.2344 -0.1148  0.0795
 6476PW      WM24364   0.893   7.601  11.743  0.2379  0.3039 -0.5814
 6477PW       W24365   2.917   5.321  13.041 -0.3176 -0.0982  0.1311
 6477PW      WP24366   2.970   5.394  13.149 -0.2880 -0.2502  0.2218
 6477PW      WM24367   2.970   5.215  13.116 -0.1245 -0.2004 -0.1438
 6478PW       W24368  11.897   8.100   1.001 -0.1318 -0.1126  0.3758
 6478PW      WP24369  11.909   8.081   1.139 -0.5695  0.2045  0.4664
 6478PW      WM24370  11.912   8.223   0.937 -0.2236 -0.2966 -0.0124
 6479PW       W24371   1.909  10.204   3.801 -0.0273 -0.0010  0.5327
 6479PW      WP24372   1.992  10.097   3.765 -0.3881 -0.0855 -0.1466
 6479PW      WM24373   1.774  10.227   3.831 -0.0973 -0.1327  0.3326
 6480PW       W24374  11.242   9.412   2.030 -0.0960 -0.2374 -0.0713
 6480PW      WP24375  11.148   9.497   1.970 -0.0201  0.0091  0.1495
 6480PW      WM24376  11.236   9.366   2.162  0.1743 -0.2777 -0.0705
 6481PW       W24377  12.004  11.014   9.537  0.1382 -0.3472  0.0888
 6481PW      WP24378  12.122  11.043   9.607 -0.1324 -0.0573  0.4481
 6481PW      WM24379  11.873  11.060   9.559 -0.0112 -0.5184 -0.3909
 6482PW       W24380   0.065   7.032   3.567  0.0177 -0.0775  0.1448
 6482PW      WP24381  -0.008   6.993   3.680  0.4821 -0.2917  0.3855
 6482PW      WM24382   0.202   7.016   3.591  0.1273  0.1266 -0.3007
 6483PW       W24383   5.300   7.896   8.859  0.1555  0.2249  0.2076
 6483PW      WP24384   5.399   7.932   8.767  0.1259  0.2549  0.1875
 6483PW      WM24385   5.228   7.796   8.926 -0.1365  0.1254 -0.2306
 6484PW       W24386   6.850   2.313  11.391 -0.0377 -0.0959 -0.0073
 6484PW      WP24387   6.733   2.286  11.463  0.0338 -0.1180  0.1022
 6484PW      WM24388   6.951   2.244  11.322  0.0293  0.1561 -0.1682
 6485PW       W24389   2.329   6.268  10.093 -0.4637  0.0902 -0.2291
 6485PW      WP24390   2.419   6.289  10.199 -0.2245  0.2061 -0.4509
 6485PW      WM24391   2.296   6.389  10.030 -0.2506  0.0777 -0.3687
 6486PW       W24392   1.388   6.799   3.418  0.1759 -0.1194  0.3580
 6486PW      WP24393   1.426   6.674   3.368 -0.5790 -0.2314 -0.0139
 6486PW      WM24394   1.263   6.760   3.369  0.2764 -0.3542  0.2810
 6487PW       W24395   0.385   9.997   1.382  0.2498 -0.2061 -0.0058
 6487PW      WP24396   0.475   9.945   1.476  0.2158 -0.0674  0.1046
 6487PW      WM24397   0.415  10.102   1.470 -0.1749  0.4323 -0.5721
 6488PW       W24398   9.130   8.072   0.599 -0.0645 -0.1589  0.1769
 6488PW      WP24399   9.033   8.172   0.606 -0.0390 -0.1064 -0.1310
 6488PW      WM24400   9.194   8.045   0.720 -0.0964  0.5078  0.3591
 6489PW       W24401  11.086  11.596   2.138  0.1264  0.1876  0.0457
 6489PW      WP24402  11.096  11.638   2.005  0.2295  0.4273  0.1279
 6489PW      WM24403  11.065  11.575   2.274 -0.6932  0.1393 -0.0641
 6490PW       W24404  10.931  10.520   1.234 -0.1624 -0.4198  0.3100
 6490PW      WP24405  10.810  10.528   1.164  0.2658 -0.0085 -0.4636
 6490PW      WM24406  10.980  10.563   1.358  0.1646  0.6507 -0.1283
 6491PW       W24407   6.242   2.308   8.741 -0.2739 -0.2518 -0.1558
 6491PW      WP24408   6.147   2.407   8.714  0.0645  0.2069  0.2382
 6491PW      WM24409   6.371   2.321   8.793 -0.1655  0.0974 -0.4841
 6492PW       W24410   1.645   6.196  12.572  0.4484  0.0081  0.1666
 6492PW      WP24411   1.658   6.146  12.702  0.4719 -0.4341  0.0033
 6492PW      WM24412   1.674   6.284  12.467  0.4796  0.3793  0.4739
 6493PW       W24413  11.826  10.694  10.420  0.4305 -0.1436  0.1611
 6493PW      WP24414  11.710  10.743  10.360  0.3593  0.0061  0.4173
 6493PW      WM24415  11.737  10.770  10.496  0.4445  0.0220  0.0138
 6494PW       W24416   8.074  11.807   3.308 -0.2107 -0.3366 -0.1640
 6494PW      WP24417   8.169  11.831   3.407  0.0373  0.0520 -0.4837
 6494PW      WM24418   7.967  11.751   3.380 -0.5179 -0.0342 -0.3680
 6495PW       W24419   7.197   8.893  12.040 -0.1185 -0.3607  0.2325
 6495PW      WP24420   7.094   8.826  11.973 -0.7165  0.2560  0.4776
 6495PW      WM24421   7.217   8.985  11.937 -0.2888 -0.5345  0.0396
 6496PW       W24422   3.136   2.877   1.461 -0.0629  0.0631 -0.3220
 6496PW      WP24423   3.172   2.852   1.593  0.0100  0.2063 -0.3134
 6496PW      WM24424   3.192   3.005   1.445 -0.5945  0.3005 -0.3938
 6497PW       W24425   3.822  10.298   1.506 -0.0546  0.5345 -0.4847
 6497PW      WP24426   3.954  10.261   1.531 -0.2242  0.0522 -0.2251
 6497PW      WM24427   3.772  10.172   1.470  0.4039  0.1723  0.0563
 6498PW       W24428   0.237   0.247  12.322  0.1032 -0.5068  0.5698
 6498PW      WP24429   0.262   0.377  12.367 -0.3094 -0.1800 -0.0717
 6498PW      WM24430   0.098   0.263  12.315  0.1773  0.1261 -0.4158
 6499PW       W24431   8.743   1.342   0.739  0.4526 -0.3011  0.4611
 6499PW      WP24432   8.748   1.473   0.790 -0.0977 -0.0966  0.0414
 6499PW      WM24433   8.627   1.338   0.818  0.0564  0.3389 -0.0335
 6500PW       W24434   5.805   5.006   2.306 -0.3855 -0.0034 -0.1460
 6500PW      WP24435   5.747   5.074   2.414  0.3282  0.1448  0.1720
 6500PW      WM24436   5.873   4.961   2.192 -0.1352 -0.1532  0.0590
 6501PW       W24437   9.227   5.457   8.548 -0.2653 -0.3651  0.2094
 6501PW      WP24438   9.353   5.466   8.609 -0.3074  0.8390  0.2293
 6501PW      WM24439   9.177   5.377   8.652  0.1567 -0.1775  0.5742
 6502PW       W24440   5.984   4.011   4.792 -0.1770  0.2694 -0.4990
 6502PW      WP24441   5.881   4.006   4.886 -0.0412  0.3180 -0.3464
 6502PW      WM24442   5.844   4.007   4.790 -0.2224 -0.2455  0.5200
 6503PW       W24443   3.178   4.629   1.692  0.4534 -0.3481 -0.3137
 6503PW      WP24444   3.242   4.720   1.608 -0.0041  0.4996  0.1825
 6503PW      WM24445   3.225   4.726   1.781  0.1060 -0.8377  0.4539
 6504PW       W24446   1.021   5.972   1.174 -0.0822 -0.1637  0.0770
 6504PW      WP24447   0.909   6.054   1.157  0.0752  0.1147  0.3530
 6504PW      WM24448   1.067   5.938   1.301  0.3905 -0.1026 -0.0678
 6505PW       W24449  10.455   9.381  11.621  0.2228 -0.3031 -0.0066
 6505PW      WP24450  10.446   9.250  11.575  0.4515 -0.4581  0.3693
 6505PW      WM24451  10.362   9.464  11.685  0.0833 -0.0615 -0.4958
 6506PW       W24452   5.548  10.992  13.025  0.2412  0.3990  0.1772
 6506PW      WP24453   5.634  10.995  13.135  0.2777 -0.0233  0.1703
 6506PW      WM24454   5.586  10.857  13.026  0.3948  0.4389 -0.0420
 6507PW       W24455   8.291   4.275   9.434  0.0916 -0.6562  0.4792
 6507PW      WP24456   8.253   4.341   9.552 -0.3191  0.4374 -0.1917
 6507PW      WM24457   8.296   4.137   9.410  0.2808 -0.6455  0.4472
 6508PW       W24458   4.925   0.733   2.942  0.0221 -0.1020  0.1439
 6508PW      WP24459   4.863   0.844   2.882  0.1667 -0.1897 -0.1790
 6508PW      WM24460   4.891   0.660   3.056 -0.4010 -0.2140 -0.0437
 6509PW       W24461   4.177  11.137   0.236  0.2645 -0.0469 -0.2376
 6509PW      WP24462   4.134  11.015   0.291  0.4316 -0.0415 -0.0899
 6509PW      WM24463   4.067  11.223   0.231  0.0856 -0.2424  0.1296
 6510PW       W24464  10.220   7.007   4.657 -0.0257 -0.1097 -0.1612
 6510PW      WP24465  10.137   7.053   4.759  0.1976 -0.1903  0.0605
 6510PW      WM24466  10.108   6.928   4.629  0.2710 -0.4878 -0.3233
 6511PW       W24467   3.910   4.746   0.065 -0.2504  0.0847 -0.0561
 6511PW      WP24468   4.024   4.751  -0.016 -0.2948  0.4122 -0.1074
 6511PW      WM24469   3.832   4.836   0.139 -0.3562 -0.0583  0.0096
 6512PW       W24470  11.126   8.997   3.986  0.2943  0.3091  0.0502
 6512PW      WP24471  11.035   8.891   3.995  0.2448  0.3677  0.2730
 6512PW      WM24472  11.110   9.017   3.849 -0.4955 -0.0406  0.0672
 6513PW       W24473  10.100   2.480  12.742 -0.1136 -0.8326  0.4353
 6513PW      WP24474  10.174   2.520  12.853  0.2824  0.1591 -0.1203
 6513PW      WM24475   9.976   2.534  12.709  0.1408 -0.0354  0.6863
 6514PW       W24476   8.447   5.637   2.864  0.4577 -0.4393  0.4941
 6514PW      WP24477   8.563   5.652   2.940  0.6836 -0.3098  0.1381
 6514PW      WM24478   8.375   5.553   2.949 -0.4689 -0.2619 -0.0419
 6515PW       W24479   3.293   8.030  11.457 -0.3805  0.0448  0.1456
 6515PW      WP24480   3.378   7.930  11.506 -0.0040  0.0283 -0.4813
 6515PW      WM24481   3.290   8.114  11.345 -0.1215  0.0234  0.1197
 6516PW       W24482   1.575  10.739  12.403 -0.1080 -0.4507  0.1945
 6516PW      WP24483   1.557  10.651  12.510 -0.2222 -0.1419  0.4371
 6516PW      WM24484   1.505  10.860  12.410  0.4589 -0.0519 -0.4249
 6517PW       W24485   4.403   6.364  11.202 -0.1647  0.1176 -0.1448
 6517PW      WP24486   4.392   6.451  11.312 -0.1629 -0.1899  0.1047
 6517PW      WM24487   4.514   6.445  11.174  0.4865 -0.7413 -0.2707
 6518PW       W24488   6.445   3.106   0.916  0.4309  0.3120  0.6476
 6518PW      WP24489   6.380   3.209   0.848  0.0480 -0.2492  0.0996
 6518PW      WM24490   6.358   3.114   1.025  0.3776  0.2855  0.6072
 6519PW       W24491   9.573   2.670   5.170  0.1408 -0.0120  0.0473
 6519PW      WP24492   9.496   2.615   5.066  0.4155  0.0541 -0.1990
 6519PW      WM24493   9.680   2.631   5.089  0.3368 -0.1347  0.3607
 6520PW       W24494   3.268   1.716  12.572  0.1727  0.1868 -0.2538
 6520PW      WP24495   3.205   1.702  12.697  0.0222  0.4967 -0.2902
 6520PW      WM24496   3.363   1.675  12.478  0.1494  0.0825 -0.2321
 6521PW       W24497   4.652   8.091  11.090  0.2233  0.2075 -0.1559
 6521PW      WP24498   4.615   8.224  11.117  0.4503  0.2081  0.1739
 6521PW      WM24499   4.690   8.011  10.981  0.1675  0.1130 -0.1060
 6522PW       W24500   2.998   3.891   5.227  0.2026 -0.2102  0.0258
 6522PW      WP24501   3.041   3.877   5.095  0.0471  0.2601 -0.0810
 6522PW      WM24502   3.101   3.866   5.318  0.3656 -0.1345 -0.1363
 6523PW       W24503   2.936   1.964  11.842 -0.1452  0.5290  0.0519
 6523PW      WP24504   2.879   2.039  11.946  0.2323  0.3243  0.4194
 6523PW      WM24505   2.908   1.860  11.753  0.0213 -0.0329  0.6151
 6524PW       W24506   7.338   7.337  11.489 -0.0129 -0.4018 -0.0591
 6524PW      WP24507   7.265   7.363  11.606  0.1297  0.1871 -0.0818
 6524PW      WM24508   7.477   7.349  11.504 -0.0563 -0.1822  0.2188
 6525PW       W24509   4.810   2.848   9.329  0.2582  0.0804  0.0412
 6525PW      WP24510   4.804   2.983   9.365  0.1347  0.2066 -0.4120
 6525PW      WM24511   4.697   2.889   9.401  0.2190  0.1270 -0.0461
 6526PW       W24512  10.439   3.699  11.147 -0.1991 -0.0440  0.0174
 6526PW      WP24513  10.308   3.690  11.100  0.0065  0.1847 -0.6563
 6526PW      WM24514  10.365   3.762  11.248 -0.0671  0.0550  0.0545
 6527PW       W24515   9.731   3.149  12.862 -0.2414  0.2861  0.3301
 6527PW      WP24516   9.861   3.106  12.891 -0.1880  0.0900 -0.1435
 6527PW      WM24517   9.726   3.242  12.967 -0.3835  0.3001  0.3122
 6528PW       W24518  10.574   6.901   0.454 -0.2578 -0.3955  0.4855
 6528PW      WP24519  10.555   6.790   0.370 -0.6580  0.0972 -0.1164
 6528PW      WM24520  10.555   6.949   0.324  0.1517 -0.1399  0.5122
 6529PW       W24521  11.137   3.115   3.573 -0.1501  0.4731  0.2046
 6529PW      WP24522  11.269   3.083   3.605 -0.0968  0.7812  0.3057
 6529PW      WM24523  11.011   3.168   3.602 -0.3441  0.1286  0.0268
 6530PW       W24524   8.884   5.557  12.976  0.3004 -0.0251 -0.1048
 6530PW      WP24525   8.946   5.436  12.944 -0.0503 -0.2604  0.0712
 6530PW      WM24526   8.840   5.564  13.109  0.4858  0.2886 -0.0558
 6531PW       W24527   5.211   2.901  12.307 -0.0906 -0.0224 -0.2094
 6531PW      WP24528   5.243   2.994  12.407  0.4094 -0.2446 -0.1445
 6531PW      WM24529   5.252   2.836  12.190  0.0654 -0.0056 -0.1657
 6532PW       W24530   2.392   3.825   9.876  0.2211  0.1060  0.1008
 6532PW      WP24531   2.330   3.730   9.958  0.2997  0.0317  0.0755
 6532PW      WM24532   2.515   3.824   9.809 -0.1106 -0.2071 -0.5575
 6533PW       W24533   6.328   0.772  10.261  0.2909 -0.0814 -0.3853
 6533PW      WP24534   6.400   0.689  10.349  0.1208  0.2390  0.0781
 6533PW      WM24535   6.245   0.683  10.330 -0.2832  0.4191 -0.3970
 6534PW       W24536   5.435   1.195   8.879 -0.5102  0.0629 -0.0988
 6534PW      WP24537   5.345   1.244   8.975  0.2128  0.6991  0.3164
 6534PW      WM24538   5.428   1.255   8.753 -0.1685  0.0281 -0.1376
 6535PW       W24539   8.813   3.329   3.678 -0.1050 -0.1536 -0.2568
 6535PW      WP24540   8.946   3.360   3.647 -0.2094  0.4563 -0.1564
 6535PW      WM24541   8.821   3.468   3.672 -0.4617 -0.1204 -0.1177
 6536PW       W24542   1.608  11.813   8.547  0.0468  0.0783 -0.0923
 6536PW      WP24543   1.719  11.899   8.536  0.3338 -0.2360  0.1958
 6536PW      WM24544   1.485  11.821   8.481 -0.1166 -0.4553  0.1213
 6537PW       W24545  10.695   6.250   2.102 -0.3350  0.0995  0.0527
 6537PW      WP24546  10.817   6.181   2.109 -0.2346  0.2496 -0.1712
 6537PW      WM24547  10.727   6.336   2.208  0.0414 -0.0419  0.0612
 6538PW       W24548  10.266   1.454   3.033  0.0458 -0.2454  0.2005
 6538PW      WP24549  10.367   1.512   3.112 -0.3124 -0.0123  0.5086
 6538PW      WM24550  10.293   1.320   3.061 -0.3370 -0.4170 -0.1958
 6539PW       W24551   1.499   4.941   9.411 -0.2646 -0.3405 -0.0530
 6539PW      WP24552   1.634   4.958   9.376 -0.4274  0.8656 -0.3025
 6539PW      WM24553   1.423   4.826   9.385 -0.2780 -0.4080  0.2638
 6540PW       W24554   5.562   3.727   4.878  0.2358  0.0133  0.0308
 6540PW      WP24555   5.523   3.861   4.890  0.3090  0.0495 -0.1209
 6540PW      WM24556   5.623   3.642   4.971 -0.0185 -0.2243 -0.0110
 6541PW       W24557   3.710   8.449   2.757  0.0241 -0.1872  0.0485
 6541PW      WP24558   3.694   8.311   2.777 -0.4031 -0.1024  0.3676
 6541PW      WM24559   3.639   8.559   2.806 -0.4514 -0.5786  0.2848
 6542PW       W24560   6.780   1.568   0.893 -0.0644 -0.4996 -0.0756
 6542PW      WP24561   6.801   1.498   0.774  0.2202  0.0173 -0.3479
 6542PW      WM24562   6.689   1.596   0.790  0.2501  0.2191 -0.1926
 6543PW       W24563   1.003   3.885   8.700  0.2262 -0.0023 -0.1158
 6543PW      WP24564   1.074   3.774   8.652 -0.0073 -0.3899  0.3916
 6543PW      WM24565   0.921   3.847   8.592 -0.3149 -0.3589  0.3913
 6544PW       W24566   2.611   3.483   3.311 -0.0547  0.0462 -0.1185
 6544PW      WP24567   2.575   3.613   3.349  0.2856  0.0232  0.3265
 6544PW      WM24568   2.579   3.504   3.176 -0.0856  0.1828 -0.0909
 6545PW       W24569  11.469   5.141   3.576  0.6204 -0.2659  0.2726
 6545PW      WP24570  11.557   5.246   3.548  0.4004 -0.1237  0.1007
 6545PW      WM24571  11.352   5.079   3.620  0.4564  0.0253  0.2558
 6546PW       W24572   8.700   8.393   9.380 -0.2660 -0.2513  0.1328
 6546PW      WP24573   8.610   8.434   9.281 -0.1298 -0.1202  0.0609
 6546PW      WM24574   8.677   8.353   9.512  0.2347 -0.1636  0.2557
 6547PW       W24575   3.131   2.171  12.784  0.1715 -0.0782 -0.3140
 6547PW      WP24576   3.148   2.268  12.685  0.2878 -0.0495 -0.2661
 6547PW      WM24577   3.042   2.139  12.680  0.1645 -0.1992 -0.2721
 6548PW       W24578  11.377   2.341   0.452 -0.0833  0.5825  0.0997
 6548PW      WP24579  11.433   2.410   0.561 -0.0251  0.5451  0.0940
 6548PW      WM24580  11.332   2.341   0.320 -0.7259 -0.3847  0.2704
 6549PW       W24581   8.009   2.430   0.299 -0.0956  0.1405 -0.1388
 6549PW      WP24582   8.032   2.385   0.430 -0.2633 -0.1340 -0.1984
 6549PW      WM24583   8.066   2.552   0.261 -0.2202  0.2117 -0.1021
 6550PW       W24584   0.423   7.165   1.338  0.2018 -0.0836 -0.0624
 6550PW      WP24585   0.485   7.288   1.315  0.3163 -0.1628 -0.1848
 6550PW      WM24586   0.318   7.208   1.256 -0.1945  0.0582  0.4873
 6551PW       W24587   6.429  11.444   1.097 -0.4232  0.3371  0.2356
 6551PW      WP24588   6.473  11.518   1.208 -0.0277 -0.2445  0.4911
 6551PW      WM24589   6.331  11.488   1.007  0.2200  0.3754 -0.5018
 6552PW       W24590   5.010   1.148  11.059  0.3081 -0.7116 -0.2405
 6552PW      WP24591   5.034   1.150  10.921  0.1165  0.0748 -0.2867
 6552PW      WM24592   5.146   1.126  11.084  0.3413 -0.3496 -0.0741
 6553PW       W24593   6.130   5.789   9.976 -0.2989  0.6647  0.4182
 6553PW      WP24594   6.030   5.701   9.933 -0.0653  0.4958  0.2088
 6553PW      WM24595   6.213   5.855   9.884  0.1727 -0.7843 -0.3387
 6554PW       W24596   5.664   3.032  12.100 -0.1551 -0.2158  0.1404
 6554PW      WP24597   5.737   2.928  12.041 -0.0097 -0.1990  0.2876
 6554PW      WM24598   5.651   3.130  12.001  0.1416 -0.4270 -0.1214
 6555PW       W24599   2.282  11.438   9.065 -0.0398 -0.2600 -0.0504
 6555PW      WP24600   2.336  11.461   8.939 -0.1042 -0.0412 -0.0408
 6555PW      WM24601   2.200  11.395   9.171  0.0286 -0.1714  0.0391
 6556PW       W24602   0.704   6.292  11.453 -0.1981  0.0174 -0.0378
 6556PW      WP24603   0.758   6.419  11.433  0.2951 -0.1625  0.0713
 6556PW      WM24604   0.823   6.218  11.444  0.0563  0.4378 -0.2874
 6557PW       W24605   5.397   4.554  10.720 -0.1532 -0.0572  0.0048
 6557PW      WP24606   5.437   4.573  10.587 -0.1897  0.2133  0.0287
 6557PW      WM24607   5.490   4.519  10.819 -0.1028  0.0220 -0.0141
 6558PW       W24608   8.282   3.471   5.597 -0.0267  0.1322 -0.0477
 6558PW      WP24609   8.308   3.592   5.534  0.1125 -0.1262 -0.5104
 6558PW      WM24610   8.167   3.451   5.519 -0.5242  0.2862  0.5965
 6559PW       W24611   4.700   0.284   3.148  0.5121  0.1631  0.1571
 6559PW      WP24612   4.684   0.408   3.209 -0.3251  0.2231 -0.1227
 6559PW      WM24613   4.686   0.170   3.228  0.0176 -0.0012 -0.1424
 6560PW       W24614  11.093   3.402   2.576 -0.0535 -0.1074  0.0271
 6560PW      WP24615  11.083   3.264   2.598  0.3371 -0.1669 -0.1306
 6560PW      WM24616  11.076   3.541   2.571 -0.1443 -0.1216 -0.0576
 6561PW       W24617   1.484   4.853   0.664  0.2885 -0.0883  0.1956
 6561PW      WP24618   1.414   4.970   0.697  0.2445  0.0336 -0.2964
 6561PW      WM24619   1.521   4.747   0.748 -0.1108  0.0740  0.5999
 6562PW       W24620   6.764   4.968  10.649  0.8363  0.0330 -0.2905
 6562PW      WP24621   6.794   4.841  10.599  0.3081 -0.3191  0.2184
 6562PW      WM24622   6.717   5.100  10.649  0.1556 -0.1839 -0.0758
 6563PW       W24623   5.804   5.978  11.125  0.0841  0.1385 -0.0817
 6563PW      WP24624   5.779   6.094  11.199 -0.3115  0.2233 -0.3299
 6563PW      WM24625   5.921   5.901  11.122 -0.4138 -0.6856  0.0065
 6564PW       W24626   7.391   1.662   4.129 -0.0431  0.1363 -0.3497
 6564PW      WP24627   7.353   1.793   4.159  0.0178  0.1130 -0.1639
 6564PW      WM24628   7.528   1.638   4.145  0.0012  0.5153 -0.0694
 6565PW       W24629   9.702   7.266  10.380  0.4244  0.3806 -0.2404
 6565PW      WP24630   9.733   7.130  10.365  0.0387  0.2417  0.1454
 6565PW      WM24631   9.611   7.232  10.279  0.0330  0.0060  0.2170
 6566PW       W24632  11.633   1.819   2.035  0.0625  0.0202  0.0538
 6566PW      WP24633  11.575   1.693   2.014 -0.2645  0.1319  0.2453
 6566PW      WM24634  11.643   1.783   1.900 -0.2680 -0.6149  0.1833
 6567PW       W24635   5.781   5.508  11.826  0.1641  0.1352 -0.4209
 6567PW      WP24636   5.703   5.502  11.709 -0.2810  0.2038 -0.1408
 6567PW      WM24637   5.778   5.641  11.784 -0.3411  0.2847  0.0277
 6568PW       W24638   4.240  10.001  13.101  0.1491 -0.3803  0.0519
 6568PW      WP24639   4.308  10.045  13.215  0.1185 -0.0020 -0.0693
 6568PW      WM24640   4.265   9.876  13.159 -0.1880 -0.2535  0.5029
 6569PW       W24641   4.203   8.676   8.668 -0.1677 -0.3962  0.7320
 6569PW      WP24642   4.154   8.607   8.557  0.5709 -0.1806  0.2353
 6569PW      WM24643   4.120   8.780   8.711  0.3491  0.2385  0.3042
 6570PW       W24644  10.197   8.691   9.635  0.1101  0.0611 -0.0910
 6570PW      WP24645  10.273   8.680   9.752 -0.2753 -0.0220  0.1615
 6570PW      WM24646  10.298   8.634   9.557  0.2667  0.0675  0.1051
 6571PW       W24647   4.555   3.659  12.771 -0.0216 -0.2060  0.0176
 6571PW      WP24648   4.638   3.558  12.719  0.1810 -0.0918  0.1120
 6571PW      WM24649   4.421   3.683  12.740  0.0398 -0.1572 -0.2214
 6572PW       W24650   3.879   3.788   3.977  0.1697  0.1998  0.1432
 6572PW      WP24651   3.862   3.922   4.013  0.2173  0.1824  0.2335
 6572PW      WM24652   3.900   3.757   4.112 -0.3550 -0.3514  0.1161
 6573PW       W24653   4.675  11.738   0.712  0.0166 -0.0033 -0.1384
 6573PW      WP24654   4.628  11.629   0.637  0.3673 -0.1498 -0.1547
 6573PW      WM24655   4.627  11.630   0.788 -0.0364  0.0233 -0.1341
 6574PW       W24656   1.793  10.967   2.197  0.0648 -0.3814 -0.2498
 6574PW      WP24657   1.835  11.086   2.258 -0.1342  0.0767 -0.9502
 6574PW      WM24658   1.825  10.910   2.321  0.4600  0.0790 -0.1259
 6575PW       W24659   3.694   5.801   2.176 -0.0283 -0.0729  0.4632
 6575PW      WP24660   3.768   5.727   2.084 -0.0318  0.3443  0.1099
 6575PW      WM24661   3.653   5.705   2.083  0.1569 -0.0348  0.3397
 6576PW       W24662   4.055   5.540  12.380  0.0845  0.3233  0.0818
 6576PW      WP24663   4.180   5.581  12.427  0.4836 -0.1932 -0.4554
 6576PW      WM24664   4.095   5.435  12.296 -0.4433  0.1388  0.0398
 6577PW       W24665   1.015   6.721  12.436  0.2296 -0.0262 -0.2663
 6577PW      WP24666   1.009   6.581  12.434  0.2401 -0.0347  0.0387
 6577PW      WM24667   1.033   6.805  12.325 -0.4400  0.4266 -0.0608
 6578PW       W24668   9.762   7.866  12.308  0.0065  0.0750  0.2588
 6578PW      WP24669   9.719   7.760  12.228 -0.4529  0.0853  0.4803
 6578PW      WM24670   9.678   7.825  12.412 -0.2053  0.1000  0.0990
 6579PW       W24671   1.386  11.965   2.902 -0.2927  0.1222  0.0828
 6579PW      WP24672   1.471  11.890   2.819 -0.0346  0.2499  0.2289
 6579PW      WM24673   1.354  11.915   3.029  0.1912  0.2514  0.2648
 6580PW       W24674  10.860   7.773   9.614  0.1864 -0.1740 -0.0161
 6580PW      WP24675  10.968   7.745   9.529 -0.1862 -0.2280 -0.4907
 6580PW      WM24676  10.757   7.790   9.521 -0.2471  0.0905  0.4830
 6581PW       W24677   2.088   4.649   0.538  0.0056  0.1508  0.2966
 6581PW      WP24678   2.014   4.588   0.436  0.2692  0.2766  0.0246
 6581PW      WM24679   2.109   4.546   0.630 -0.0655  0.1268  0.2868
 6582PW       W24680   0.733  10.048   4.858  0.5339  0.0100  0.1770
 6582PW      WP24681   0.645  10.102   4.953  0.3001  0.1617 -0.1168
 6582PW      WM24682   0.636   9.951   4.886  0.0863  0.1839 -0.6136
 6583PW       W24683   0.390  12.019   2.683 -0.0896 -0.0547 -0.1138
 6583PW      WP24684   0.364  12.152   2.719  0.0358 -0.1488  0.3658
 6583PW      WM24685   0.307  11.916   2.728 -0.1081  0.0752  0.1591
 6584PW       W24686  10.842   5.167   8.353 -0.1135 -0.0274 -0.0939
 6584PW      WP24687  10.830   5.284   8.430  0.1619  0.2625 -0.4698
 6584PW      WM24688  10.895   5.064   8.274  0.4765  0.1686  0.0173
 6585PW       W24689   5.450   5.685  11.349  0.1262  0.2087 -0.0881
 6585PW      WP24690   5.469   5.589  11.249  0.2193  0.1455 -0.0110
 6585PW      WM24691   5.354   5.676  11.450  0.3262 -0.1807  0.0768
 6586PW       W24692  12.064   9.786   1.803  0.2258 -0.2300  0.1347
 6586PW      WP24693  11.974   9.726   1.714  0.3337 -0.0541 -0.0976
 6586PW      WM24694  11.959   9.850   1.870 -0.2016 -0.0686 -0.6347
 6587PW       W24695   6.664   4.272   2.936  0.0359  0.3372  0.0068
 6587PW      WP24696   6.770   4.188   2.902  0.0276  0.3519 -0.0574
 6587PW      WM24697   6.690   4.408   2.916 -0.2682  0.2930 -0.8988
 6588PW       W24698   5.649   2.895   0.740  0.1301 -0.1713 -0.0439
 6588PW      WP24699   5.690   2.841   0.617  0.0427 -0.4683  0.0549
 6588PW      WM24700   5.559   2.996   0.773  0.1001 -0.2626  0.1642
 6589PW       W24701   2.868   0.236   3.586 -0.2061  0.2272 -0.0140
 6589PW      WP24702   2.920   0.112   3.549 -0.2535  0.0262  0.5561
 6589PW      WM24703   2.739   0.285   3.557 -0.1700  0.2321 -0.1745
 6590PW       W24704   6.948   0.325   9.810  0.1590 -0.3118  0.1204
 6590PW      WP24705   6.904   0.428   9.726  0.5035 -0.0619  0.2347
 6590PW      WM24706   6.889   0.264   9.921 -0.1778 -0.0571  0.0907
 6591PW       W24707  11.216   8.778  10.771 -0.0932  0.3218  0.1267
 6591PW      WP24708  11.206   8.873  10.874 -0.5575  0.0490  0.3518
 6591PW      WM24709  11.173   8.896  10.710 -0.6213 -0.0741 -0.3147
 6592PW       W24710   1.283   6.312   0.323 -0.1907  0.0059  0.4705
 6592PW      WP24711   1.281   6.341   0.186  0.5202  0.0269  0.4493
 6592PW      WM24712   1.402   6.278   0.387  0.0983  0.0958  0.0006
 6593PW       W24713   1.967   8.639   0.219 -0.0594  0.1381 -0.1975
 6593PW      WP24714   2.079   8.577   0.162  0.2361  0.0459  0.4387
 6593PW      WM24715   1.836   8.612   0.261 -0.0247  0.1070 -0.1084
 6594PW       W24716   7.806   8.028  12.678  0.2405  0.1969  0.1871
 6594PW      WP24717   7.874   8.141  12.725  0.2597  0.2487  0.0355
 6594PW      WM24718   7.678   8.048  12.733 -0.2738 -0.2657 -0.7227
 6595PW       W24719   1.832   5.395   4.189  0.1591  0.1213 -0.0048
 6595PW      WP24720   1.900   5.501   4.127 -0.2319  0.2725 -0.1928
 6595PW      WM24721   1.920   5.314   4.117  0.1998 -0.0925  0.2741
 6596PW       W24722  10.171   4.573  13.353 -0.0433  0.3685 -0.0607
 6596PW      WP24723  10.265   4.675  13.372  0.3826 -0.0294  0.0682
 6596PW      WM24724  10.174   4.573  13.213 -0.2454  0.3380 -0.0662
 6597PW       W24725   0.887   9.285  10.494  0.2748  0.0803 -0.3760
 6597PW      WP24726   0.820   9.403  10.530  0.0488  0.0051 -0.5338
 6597PW      WM24727   0.879   9.169  10.417  0.2176  0.1469 -0.4721
 6598PW       W24728   0.452   2.861   0.288  0.2219 -0.1421  0.0052
 6598PW      WP24729   0.384   2.745   0.251  0.3132 -0.1835 -0.0352
 6598PW      WM24730   0.349   2.862   0.194 -0.0972  0.0265  0.3473
 6599PW       W24731  10.750  11.648   9.190  0.1062 -0.0858  0.1071
 6599PW      WP24732  10.803  11.748   9.272 -0.2359  0.1218  0.0847
 6599PW      WM24733  10.847  11.597   9.103  0.1255  0.0241  0.0628
 6600PW       W24734   0.559  11.504  10.851 -0.0876  0.0834 -0.1434
 6600PW      WP24735   0.601  11.372  10.869  0.2247  0.2340  0.3398
 6600PW      WM24736   0.617  11.535  10.727 -0.1331  0.0757 -0.1666
 6601PW       W24737   8.256  12.158   1.065  0.2533 -0.3690  0.0865
 6601PW      WP24738   8.266  12.228   0.945  0.5345  0.0964  0.3676
 6601PW      WM24739   8.198  12.035   1.032  0.5129 -0.3504 -0.4832
 6602PW       W24740   2.838   2.888   4.460  0.3060 -0.0212 -0.0074
 6602PW      WP24741   2.975   2.907   4.442  0.3138 -0.1937 -0.1449
 6602PW      WM24742   2.765   2.769   4.442  0.4136 -0.1857  0.5523
 6603PW       W24743   6.042   4.543  11.860  0.2062 -0.4333 -0.1004
 6603PW      WP24744   5.953   4.518  11.965 -0.1647 -0.3934 -0.3945
 6603PW      WM24745   6.118   4.614  11.955  0.2333 -0.2682 -0.2433
 6604PW       W24746   6.977   3.188   3.666 -0.0884  0.2031 -0.2064
 6604PW      WP24747   7.037   3.243   3.779  0.0032  0.1082 -0.2081
 6604PW      WM24748   7.010   3.103   3.559 -0.3813  0.1146 -0.2292
 6605PW       W24749   6.494   3.864   3.573 -0.4129 -0.4569  0.2190
 6605PW      WP24750   6.509   3.852   3.434  0.1970  0.3039  0.1895
 6605PW      WM24751   6.410   3.964   3.623 -0.5646 -0.2315 -0.4332
 6606PW       W24752   4.881   5.183   5.432 -0.2969  0.3539  0.1598
 6606PW      WP24753   4.948   5.071   5.482 -0.1287  0.3298 -0.1121
 6606PW      WM24754   4.767   5.115   5.387  0.0540 -0.2845  0.1753
 6607PW       W24755   1.029   4.565  12.479 -0.5431  0.2400 -0.1142
 6607PW      WP24756   0.990   4.680  12.409 -0.1856  0.3961 -0.0725
 6607PW      WM24757   0.968   4.561  12.605 -0.1833 -0.5627  0.0629
 6608PW       W24758   5.385  10.509   2.515  0.0475  0.0480  0.3841
 6608PW      WP24759   5.479  10.406   2.527  0.0527  0.0183  0.1293
 6608PW      WM24760   5.288  10.425   2.459 -0.1844  0.6368 -0.1631
 6609PW       W24761   6.409   1.252   2.087  0.0100 -0.3490  0.7428
 6609PW      WP24762   6.466   1.356   2.013 -0.7117 -0.2133  0.3366
 6609PW      WM24763   6.274   1.284   2.099 -0.0762  0.0355 -0.5497
 6610PW       W24764   1.985   2.133  11.553  0.2560  0.1105 -0.2598
 6610PW      WP24765   2.045   2.210  11.453 -0.3056 -0.0176 -0.7242
 6610PW      WM24766   1.940   2.010  11.502 -0.1341  0.0083  0.2859
 6611PW       W24767   8.280   7.792   5.448  0.1800  0.1918  0.1566
 6611PW      WP24768   8.212   7.804   5.327  0.4449  0.2837  0.0139
 6611PW      WM24769   8.416   7.809   5.422  0.3511 -0.3163  0.6094
 6612PW       W24770  11.438   3.842   9.461 -0.0142 -0.2019 -0.0380
 6612PW      WP24771  11.422   3.761   9.574 -0.1301 -0.1624 -0.0252
 6612PW      WM24772  11.490   3.936   9.371 -0.2644 -0.1324 -0.1139
 6613PW       W24773   0.286   9.940  10.249  0.0258 -0.3623 -0.1402
 6613PW      WP24774   0.166   9.968  10.182  0.1312  0.0290 -0.1792
 6613PW      WM24775   0.414   9.924  10.194  0.0187 -0.0095 -0.2711
 6614PW       W24776   6.362   2.700  10.635 -0.1521  0.2822 -0.0009
 6614PW      WP24777   6.282   2.669  10.525  0.3396 -0.0676 -0.2760
 6614PW      WM24778   6.444   2.678  10.747 -0.2231 -0.7079 -0.1016
 6615PW       W24779   7.731   9.304   3.844 -0.1934  0.4095 -0.0607
 6615PW      WP24780   7.830   9.213   3.803 -0.4299  0.0813  0.0808
 6615PW      WM24781   7.679   9.332   3.717 -0.0839  0.0313 -0.1953
 6616PW       W24782  11.908   0.206   2.881  0.1088 -0.0915  0.1798
 6616PW      WP24783  11.962   0.172   3.006  0.4153  0.1937  0.1295
 6616PW      WM24784  11.849   0.307   2.959  0.0914  0.1631 -0.1520
 6617PW       W24785   6.917   8.396   2.872 -0.2638 -0.1794 -0.1888
 6617PW      WP24786   6.926   8.374   2.734  0.2654 -0.0989 -0.1787
 6617PW      WM24787   6.978   8.273   2.848  0.5690  0.1585  0.0035
 6618PW       W24788   5.166  11.416  11.228 -0.2239 -0.1069  0.4913
 6618PW      WP24789   5.286  11.345  11.234 -0.0502  0.1251  0.0581
 6618PW      WM24790   5.089  11.488  11.136 -0.0506 -0.0009  0.4274
 6619PW       W24791   0.186   3.117  10.770 -0.3010 -0.2584  0.3038
 6619PW      WP24792   0.108   3.102  10.654  0.0260  0.4550 -0.0379
 6619PW      WM24793   0.184   3.217  10.867  0.7045 -0.1220  0.2406
 6620PW       W24794  10.498  10.730   8.877 -0.0902  0.2997  0.1667
 6620PW      WP24795  10.636  10.729   8.904 -0.0412  0.1926 -0.0734
 6620PW      WM24796  10.385  10.652   8.901 -0.0747  0.2351  0.0408
 6621PW       W24797  11.366  11.856   1.218  0.0952 -0.0820 -0.2383
 6621PW      WP24798  11.321  11.723   1.225 -0.3361  0.0772  0.3021
 6621PW      WM24799  11.395  11.992   1.232 -0.2881 -0.0488  0.4001
 6622PW       W24800   7.701   2.532   4.320 -0.0890 -0.1774 -0.1687
 6622PW      WP24801   7.678   2.409   4.382 -0.1654 -0.1558 -0.1532
 6622PW      WM24802   7.571   2.495   4.283 -0.3096 -0.0522  0.4166
 6623PW       W24803   7.701   6.930   4.786 -0.0818 -0.1879  0.2229
 6623PW      WP24804   7.637   6.921   4.910 -0.1355  0.0279  0.2121
 6623PW      WM24805   7.777   7.024   4.714 -0.1214 -0.2485  0.1000
 6624PW       W24806   1.773   4.415  10.692  0.1290  0.1863  0.3270
 6624PW      WP24807   1.736   4.442  10.559  0.2272 -0.2855  0.1960
 6624PW      WM24808   1.889   4.375  10.626  0.0482  0.1776  0.1862
 6625PW       W24809   0.893   2.622   1.290 -0.0030 -0.1554  0.4920
 6625PW      WP24810   1.002   2.542   1.254 -0.4101 -0.5958  0.1744
 6625PW      WM24811   0.800   2.547   1.217 -0.3144  0.1452  0.5666
 6626PW       W24812   3.913   6.795   2.183 -0.4218  0.1902  0.0806
 6626PW      WP24813   3.774   6.806   2.175 -0.4604 -0.0138  0.3670
 6626PW      WM24814   3.916   6.856   2.057  0.1015 -0.1138 -0.0706
 6627PW       W24815  11.593   6.663  11.433  0.0770  0.3922  0.0670
 6627PW      WP24816  11.688   6.654  11.330 -0.2852  0.0766 -0.2550
 6627PW      WM24817  11.523   6.737  11.336  0.2999  0.3575 -0.1248
 6628PW       W24818   2.671   2.239   0.989  0.0414 -0.3248 -0.0778
 6628PW      WP24819   2.715   2.256   0.857 -0.1491 -0.1519 -0.1207
 6628PW      WM24820   2.692   2.342   1.082 -0.7295 -0.1868 -0.0197
 6629PW       W24821   4.294   5.751   0.169  0.1109 -0.0279 -0.3798
 6629PW      WP24822   4.214   5.792   0.062 -0.0666 -0.0258 -0.2487
 6629PW      WM24823   4.241   5.855   0.246  0.2177 -0.1337 -0.1567
 6630PW       W24824  10.572   4.514  11.431  0.2396  0.0150  0.0064
 6630PW      WP24825  10.598   4.614  11.337 -0.1308  0.1576  0.0456
 6630PW      WM24826  10.472   4.416  11.424  0.3702 -0.1445  0.3044
 6631PW       W24827   3.365   4.118  10.408  0.2467 -0.0803  0.4191
 6631PW      WP24828   3.463   4.049  10.337  0.3878  0.0181  0.5156
 6631PW      WM24829   3.320   3.989  10.439  0.2211 -0.2263 -0.1794
 6632PW       W24830   4.140   6.353   1.900  0.0360 -0.2453 -0.1633
 6632PW      WP24831   4.012   6.305   1.931 -0.1133  0.1588 -0.1317
 6632PW      WM24832   4.205   6.238   1.948  0.4661  0.1694  0.3035
 6633PW       W24833   5.299  11.576  11.923 -0.4193  0.2873 -0.3020
 6633PW      WP24834   5.395  11.605  11.826 -0.0606  0.1054 -0.0157
 6633PW      WM24835   5.375  11.519  12.027 -0.0471  0.3512 -0.5283
 6634PW       W24836   1.551  11.574  11.509 -0.0206 -0.0911 -0.3738
 6634PW      WP24837   1.508  11.688  11.439 -0.2560  0.1667  0.1655
 6634PW      WM24838   1.478  11.455  11.521 -0.5351  0.1957 -0.4742
 6635PW       W24839   7.855   5.715   1.684  0.3299 -0.2030 -0.2661
 6635PW      WP24840   7.868   5.786   1.803  0.1727  0.2179 -0.4898
 6635PW      WM24841   7.735   5.653   1.724  0.2290  0.0390 -0.1848
 6636PW       W24842   9.902   9.929   2.058 -0.0804  0.1963 -0.8283
 6636PW      WP24843   9.960   9.840   2.149  0.1122  0.8155 -0.3036
 6636PW      WM24844   9.795  10.018   2.075 -0.0786  0.0777 -0.0289
 6637PW       W24845   9.776   4.646  12.493  0.1535  0.0846 -0.0801
 6637PW      WP24846   9.667   4.571  12.450  0.0770  0.2367 -0.1561
 6637PW      WM24847   9.818   4.527  12.553  0.1910  0.1586  0.0432
 6638PW       W24848   6.429  11.390  11.101  0.0099 -0.0742  0.0214
 6638PW      WP24849   6.438  11.400  11.240  0.4968  0.4580 -0.0285
 6638PW      WM24850   6.540  11.314  11.139 -0.0758 -0.0431  0.3445
 6639PW       W24851  11.912   8.045  12.729 -0.4481 -0.1658 -0.2782
 6639PW      WP24852  11.957   7.949  12.821  0.1731  0.1262 -0.2530
 6639PW      WM24853  11.783   8.016  12.683 -0.5680  0.3050 -0.2676
 6640PW       W24854  11.011   4.022   9.347  0.1909 -0.0222 -0.1493
 6640PW      WP24855  11.140   4.057   9.304  0.1906  0.0662 -0.0797
 6640PW      WM24856  10.925   4.045   9.239  0.2899  0.0205 -0.2197
 6641PW       W24857   9.457   8.830  13.158  0.0910 -0.0883 -0.1480
 6641PW      WP24858   9.439   8.964  13.194 -0.1987 -0.0765 -0.3171
 6641PW      WM24859   9.346   8.820  13.073 -0.0938 -0.0957  0.0888
 6642PW       W24860   4.175   6.693   9.260 -0.6695  0.0777 -0.4098
 6642PW      WP24861   4.289   6.774   9.264 -0.0887 -0.6937 -0.1055
 6642PW      WM24862   4.078   6.782   9.307 -0.0249  0.5359  0.1392
 6643PW       W24863   7.818   5.756   0.558 -0.2483 -0.3269 -0.3192
 6643PW      WP24864   7.854   5.621   0.562 -0.2665 -0.3268 -0.1180
 6643PW      WM24865   7.834   5.743   0.696  0.2974 -0.1206 -0.3507
 6644PW       W24866   9.913   9.849   4.259  0.0260  0.3612  0.3173
 6644PW      WP24867   9.875   9.878   4.127 -0.6290 -0.0954  0.3769
 6644PW      WM24868   9.797   9.846   4.337  0.1072  0.0047  0.4345
 6645PW       W24869   0.350   6.591   9.965 -0.3824 -0.2536  0.2238
 6645PW      WP24870   0.258   6.595  10.070 -0.3808  0.2405  0.2208
 6645PW      WM24871   0.359   6.710  10.039 -0.1201  0.1569 -0.4235
 6646PW       W24872   7.842   9.389   0.716 -0.6307  0.1700  0.4123
 6646PW      WP24873   7.857   9.469   0.602  0.1166 -0.2510  0.1821
 6646PW      WM24874   7.915   9.396   0.836 -0.5013  0.3746  0.3253
 6647PW       W24875   5.505   5.005   8.968  0.0587 -0.0673  0.0807
 6647PW      WP24876   5.524   4.959   8.837 -0.2040 -0.2286  0.0934
 6647PW      WM24877   5.451   4.908   9.054  0.1338 -0.2912 -0.1208
 6648PW       W24878  11.797  10.958  10.977  0.1526  0.0833  0.4754
 6648PW      WP24879  11.695  10.961  11.072  0.1252 -0.0180  0.4503
 6648PW      WM24880  11.904  11.021  10.912  0.3703 -0.4068  0.3315
 6649PW       W24881  11.109   2.231  10.931 -0.1774  0.0045 -0.5810
 6649PW      WP24882  10.985   2.295  10.917 -0.1370  0.3308  0.2576
 6649PW      WM24883  11.030   2.116  10.918  0.4988 -0.6199  0.2311
 6650PW       W24884   7.344   0.910   4.579 -0.0758 -0.0045 -0.2488
 6650PW      WP24885   7.378   0.775   4.584  0.1482  0.0469 -0.3516
 6650PW      WM24886   7.339   0.987   4.697 -0.0438  0.2601 -0.4168
 6651PW       W24887  11.668   8.823  10.183 -0.3197  0.2078 -0.0821
 6651PW      WP24888  11.779   8.855  10.263  0.1332 -0.4517 -0.3942
 6651PW      WM24889  11.688   8.684  10.176 -0.6653  0.1440  0.0644
 6652PW       W24890   5.158   3.807   1.670  0.1160 -0.1200  0.0290
 6652PW      WP24891   5.111   3.936   1.644  0.0172 -0.1626 -0.0057
 6652PW      WM24892   5.284   3.823   1.610  0.3082 -0.1298  0.4185
 6653PW       W24893   4.444   8.303   4.409  0.0024  0.2331 -0.1338
 6653PW      WP24894   4.391   8.269   4.283  0.1928  0.2271 -0.2131
 6653PW      WM24895   4.526   8.192   4.383  0.3670  0.3489  0.4391
 6654PW       W24896   3.195   4.591   4.004  0.3118 -0.3833  0.4084
 6654PW      WP24897   3.149   4.505   3.903 -0.0264  0.3891 -0.1451
 6654PW      WM24898   3.301   4.601   4.095  0.1335 -0.3096  0.6145
 6655PW       W24899   7.043   8.062  11.963 -0.1931 -0.1487 -0.1837
 6655PW      WP24900   7.007   8.029  12.095 -0.6014  0.2504 -0.1830
 6655PW      WM24901   7.163   8.103  11.903 -0.1646 -0.3833 -0.2904
 6656PW       W24902   6.156   0.428   3.806  0.6606 -0.1416 -0.2867
 6656PW      WP24903   6.173   0.448   3.669  0.2487  0.5453 -0.2593
 6656PW      WM24904   6.133   0.528   3.710  0.1294  0.0952  0.0619
 6657PW       W24905   6.982   3.079   0.371  0.2993 -0.5067  0.2371
 6657PW      WP24906   6.865   3.026   0.316  0.0877  0.2026 -0.0591
 6657PW      WM24907   6.960   2.999   0.484 -0.2901 -0.0679  0.4602
 6658PW       W24908  11.889   2.120  11.837 -0.1026 -0.0210 -0.2659
 6658PW      WP24909  11.757   2.133  11.882  0.2527  0.3365  0.8404
 6658PW      WM24910  11.987   2.045  11.771 -0.2755 -0.4005 -0.1021
 6659PW       W24911   1.713   3.262   2.187 -0.2433  0.0892  0.3197
 6659PW      WP24912   1.754   3.320   2.067  0.1700  0.5355  0.6577
 6659PW      WM24913   1.830   3.331   2.217 -0.4852  0.5403  0.2671
 6660PW       W24914   5.282   9.242   3.724 -0.0027  0.5002 -0.0865
 6660PW      WP24915   5.291   9.142   3.626 -0.1281  0.3412  0.0599
 6660PW      WM24916   5.162   9.297   3.677 -0.3014  0.1422  0.2163
 6661PW       W24917  10.096   5.161   1.133  0.1493 -0.2141  0.3518
 6661PW      WP24918   9.981   5.085   1.156  0.1886 -0.4336 -0.1331
 6661PW      WM24919  10.196   5.182   1.038  0.2112 -0.4049  0.3741
 6662PW       W24920   7.609   9.503  12.050 -0.2000  0.1913 -0.2497
 6662PW      WP24921   7.707   9.603  12.037  0.1587 -0.1337 -0.1384
 6662PW      WM24922   7.505   9.450  11.972 -0.2104 -0.3237  0.0941
 6663PW       W24923   0.213  11.526  13.229  0.2134  0.1892 -0.4275
 6663PW      WP24924   0.228  11.428  13.328  0.2121  0.0559 -0.5573
 6663PW      WM24925   0.327  11.491  13.155  0.3545 -0.0486 -0.1075
 6664PW       W24926   7.421   5.293  10.059  0.4823  0.2137 -0.0339
 6664PW      WP24927   7.331   5.372   9.986 -0.3739 -0.5646  0.0775
 6664PW      WM24928   7.557   5.261  10.067  0.2771 -0.8788 -0.0894
 6665PW       W24929   5.146   6.542   0.017 -0.4985 -0.3691  0.1501
 6665PW      WP24930   5.171   6.583   0.148 -0.3214  0.1144 -0.0247
 6665PW      WM24931   5.102   6.583  -0.110 -0.1450 -0.0227  0.1316
 6666PW       W24932   2.270   6.213   9.163 -0.2019  0.0050  0.2105
 6666PW      WP24933   2.281   6.082   9.116  0.0838  0.0675  0.0953
 6666PW      WM24934   2.160   6.160   9.094 -0.5620  0.3980  0.4525
 6667PW       W24935   3.487   0.059  10.651  0.2023  0.2299  0.0336
 6667PW      WP24936   3.400   0.046  10.760  0.0607 -0.0810 -0.1087
 6667PW      WM24937   3.590   0.015  10.735  0.5117 -0.0749 -0.4758
 6668PW       W24938   2.151  10.347   4.729  0.0544 -0.1943 -0.0958
 6668PW      WP24939   2.116  10.335   4.864 -0.1985  0.2011 -0.1204
 6668PW      WM24940   2.051  10.328   4.632 -0.0356  0.0145 -0.0465
 6669PW       W24941   5.409   1.698  12.480 -0.0220 -0.0565 -0.1932
 6669PW      WP24942   5.415   1.607  12.374  0.4143  0.1449 -0.3506
 6669PW      WM24943   5.272   1.712  12.453  0.0294  0.3043 -0.2896
 6670PW       W24944   0.637  10.479   0.239  0.2566  0.0131 -0.0058
 6670PW      WP24945   0.659  10.567   0.133 -0.0157 -0.1170 -0.1744
 6670PW      WM24946   0.727  10.378   0.202 -0.2011 -0.5404  0.2967
 6671PW       W24947   3.261   5.049   0.092  0.1938 -0.0397  0.0486
 6671PW      WP24948   3.287   4.929   0.159 -0.0955  0.1738  0.5732
 6671PW      WM24949   3.361   5.129   0.035  0.0308  0.2254  0.1265
 6672PW       W24950   4.223   9.263   0.845 -0.2311  0.1629  0.3952
 6672PW      WP24951   4.208   9.199   0.969 -0.3569  0.0178  0.3060
 6672PW      WM24952   4.145   9.148   0.857  0.0389 -0.1091 -0.2346
 6673PW       W24953   1.931   8.924  12.059  0.1445  0.1940 -0.4857
 6673PW      WP24954   2.035   8.840  12.100  0.0250  0.3889  0.2817
 6673PW      WM24955   1.818   8.845  12.086  0.2380  0.2078 -0.0135
 6674PW       W24956   7.539   9.253   8.648  0.5674  0.0017 -0.1268
 6674PW      WP24957   7.441   9.353   8.640  0.6285  0.0594 -0.1566
 6674PW      WM24958   7.663   9.188   8.635  0.7176  0.2353  0.0932
 6675PW       W24959   6.671   6.697  11.760  0.3042 -0.3767  0.1302
 6675PW      WP24960   6.600   6.583  11.797  0.0909 -0.3175 -0.0837
 6675PW      WM24961   6.765   6.797  11.731  0.2919 -0.2537  0.4912
 6676PW       W24962  11.856   6.309   4.720 -0.3946 -0.2016  0.3370
 6676PW      WP24963  11.881   6.430   4.786 -0.1431  0.1600 -0.3649
 6676PW      WM24964  11.812   6.176   4.711  0.0880 -0.3450 -0.2673
 6677PW       W24965   1.455   4.229  12.026  0.3411 -0.0919  0.2938
 6677PW      WP24966   1.451   4.366  12.053 -0.0479 -0.0129 -0.1010
 6677PW      WM24967   1.564   4.168  11.962  0.2248  0.2710 -0.2880
 6678PW       W24968   1.774   3.221   0.202 -0.0519  0.4418  0.0708
 6678PW      WP24969   1.753   3.161   0.077 -0.3400  0.2025  0.2274
 6678PW      WM24970   1.786   3.137   0.313  0.1140  0.1087 -0.1898
 6679PW       W24971   0.795  10.238   9.794  0.3614 -0.4048 -0.1562
 6679PW      WP24972   0.823  10.327   9.898  0.2051 -0.3663 -0.1456
 6679PW      WM24973   0.795  10.344   9.702  0.1347  0.0904  0.3820
 6680PW       W24974   8.710  11.372   9.889 -0.4325 -0.5043 -0.0752
 6680PW      WP24975   8.663  11.430  10.008  0.0370 -0.2085 -0.0199
 6680PW      WM24976   8.638  11.407   9.774 -0.1746 -0.3197 -0.1861
 6681PW       W24977  11.230   4.422  10.905 -0.1292  0.2508  0.1304
 6681PW      WP24978  11.194   4.553  10.940  0.0181  0.2513  0.2880
 6681PW      WM24979  11.335   4.404  10.814 -0.0709  0.2063  0.2056
 6682PW       W24980  10.234  10.065   1.624  0.0035 -0.0888  0.0698
 6682PW      WP24981  10.230  10.055   1.485 -0.2578  0.2057  0.0490
 6682PW      WM24982  10.188  10.197   1.613  0.1112 -0.0572 -0.0089
 6683PW       W24983   7.326   0.985   0.693 -0.0481  0.3420 -0.2853
 6683PW      WP24984   7.250   0.948   0.804  0.1895  0.2009 -0.1653
 6683PW      WM24985   7.393   0.906   0.787 -0.1190  0.0488 -0.4775
 6684PW       W24986   8.484   9.452  10.986  0.0948 -0.2286  0.2373
 6684PW      WP24987   8.386   9.385  11.061  0.0051 -0.1900  0.1555
 6684PW      WM24988   8.518   9.343  10.906  0.4964 -0.1207  0.2511
 6685PW       W24989   9.958   5.707   0.238  0.1200 -0.4198 -0.8537
 6685PW      WP24990   9.843   5.678   0.312  0.5553  0.2224  0.1890
 6685PW      WM24991  10.064   5.638   0.299  0.1811  0.1931 -0.1940
 6686PW       W24992  11.423  10.269   0.482  0.1707 -0.9710  0.1991
 6686PW      WP24993  11.557  10.234   0.462  0.5116  0.4671 -0.8589
 6686PW      WM24994  11.321  10.209   0.408 -0.1585 -0.4578  0.2054
 6687PW       W24995   7.888   8.545   3.250  0.1483  0.2708  0.2750
 6687PW      WP24996   8.002   8.625   3.233 -0.0626  0.4536 -0.4724
 6687PW      WM24997   7.917   8.410   3.228 -0.3887  0.1456  0.2533
 6688PW       W24998   6.669   6.769   5.660  0.1907  0.0849  0.2360
 6688PW      WP24999   6.654   6.631   5.679  0.1068  0.0741  0.0960
 6688PW      WM25000   6.580   6.875   5.641  0.3013  0.1127 -0.1783
 6689PW       W25001   4.602   2.071  12.532 -0.3453 -0.2008 -0.1170
 6689PW      WP25002   4.551   2.010  12.647 -0.0191 -0.0329  0.1274
 6689PW      WM25003   4.544   2.190  12.488 -0.1746 -0.0902 -0.0472
 6690PW       W25004   9.585   7.663   0.933 -0.2929 -0.3414 -0.7114
 6690PW      WP25005   9.686   7.588   0.873  0.2894 -0.3564  0.1975
 6690PW      WM25006   9.493   7.574   0.991  0.0981 -0.3951 -0.1371
 6691PW       W25007   7.136   5.507   5.258 -0.0922 -0.1305 -0.0175
 6691PW      WP25008   7.072   5.624   5.217  0.3718  0.1990  0.1551
 6691PW      WM25009   7.272   5.538   5.251 -0.1953  0.2918 -0.3918
 6692PW       W25010   3.499   1.361   9.871  0.4966  0.0288  0.0251
 6692PW      WP25011   3.507   1.221   9.880 -0.0537 -0.0536 -0.4215
 6692PW      WM25012   3.455   1.326   9.999  0.3842 -0.4084 -0.1229
 6693PW       W25013   6.473   1.175  10.532 -0.3666 -0.1793  0.2176
 6693PW      WP25014   6.536   1.141  10.652 -0.6257 -0.1370  0.3710
 6693PW      WM25015   6.416   1.292  10.585  0.1309  0.2363 -0.1162
 6694PW       W25016  11.914   4.023   1.207 -0.0383 -0.5421 -0.7004
 6694PW      WP25017  11.838   3.950   1.299  0.0439 -0.1010 -0.2564
 6694PW      WM25018  11.918   4.162   1.190 -0.1771 -0.3338  0.5097
 6695PW       W25019   4.471  10.915  12.522 -0.1935 -0.0442  0.1372
 6695PW      WP25020   4.524  10.817  12.606  0.1032 -0.3981 -0.4316
 6695PW      WM25021   4.406  10.913  12.398 -0.5496  0.2887  0.3067
 6696PW       W25022   0.789   7.532   0.406  0.5078  0.0816 -0.0041
 6696PW      WP25023   0.825   7.655   0.350 -0.0294  0.2162 -0.0802
 6696PW      WM25024   0.866   7.425   0.455  0.0470 -0.1165  0.3327
 6697PW       W25025   2.778   2.355  10.778 -0.0717  0.6354 -0.0472
 6697PW      WP25026   2.897   2.366  10.851  0.0659 -0.5300  0.0017
 6697PW      WM25027   2.691   2.326  10.672 -0.0438 -0.0995  0.1054
 6698PW       W25028   5.656   1.987   2.183  0.1088 -0.4337 -0.0957
 6698PW      WP25029   5.726   1.871   2.217  0.0835 -0.3808  0.1422
 6698PW      WM25030   5.692   2.021   2.052 -0.0690 -0.1972 -0.0868
 6699PW       W25031   0.860   1.442  10.738 -0.3542  0.6193 -0.3160
 6699PW      WP25032   0.972   1.498  10.802 -0.4008  0.1563  0.2104
 6699PW      WM25033   0.823   1.554  10.812 -0.1766  0.1748  0.5103
 6700PW       W25034   7.290   1.783   0.197 -0.1743  0.0427  0.1530
 6700PW      WP25035   7.410   1.722   0.235 -0.1080 -0.1131 -0.2844
 6700PW      WM25036   7.182   1.817   0.281 -0.0773  0.0367  0.2820
 6701PW       W25037   1.006   7.954   1.894 -0.2434  0.4841 -0.1073
 6701PW      WP25038   0.890   7.910   1.829 -0.0370 -0.1932 -0.0526
 6701PW      WM25039   1.130   7.999   1.940  0.0900 -0.3673 -0.0809
 6702PW       W25040   2.769   4.182   8.346 -0.2071 -0.0708 -0.6479
 6702PW      WP25041   2.670   4.132   8.431  0.2535  0.0956  0.0346
 6702PW      WM25042   2.657   4.245   8.291 -0.5479  0.0789  0.1477
 6703PW       W25043   7.575   6.618   3.824  0.0595  0.3296 -0.2121
 6703PW      WP25044   7.646   6.721   3.886  0.2914  0.1310 -0.1408
 6703PW      WM25045   7.669   6.515   3.824 -0.0515  0.2236  0.0259
 6704PW       W25046   8.145   7.342   3.779  0.0343  0.5051 -0.1136
 6704PW      WP25047   8.118   7.469   3.832 -0.1757  0.3312  0.2181
 6704PW      WM25048   8.197   7.356   3.908 -0.4052 -0.2908  0.1878
 6705PW       W25049   1.931   9.727  12.643 -0.5037  0.1699 -0.1039
 6705PW      WP25050   1.977   9.858  12.624  0.4268 -0.0372  0.4319
 6705PW      WM25051   1.989   9.668  12.530 -0.1933  0.1928  0.0402
 6706PW       W25052   8.996   8.372   1.697  0.0575 -0.0586 -0.3762
 6706PW      WP25053   9.050   8.243   1.703  0.2949  0.0448 -0.2179
 6706PW      WM25054   8.906   8.339   1.595 -0.1242 -0.1913 -0.1768
 6707PW       W25055   0.962   6.216   3.997  0.0424  0.2003 -0.1924
 6707PW      WP25056   0.931   6.292   4.110  0.8345 -0.0766  0.2496
 6707PW      WM25057   0.866   6.116   4.016 -0.2615  0.4590 -0.3185
 6708PW       W25058   6.356   5.835  10.945  0.2248 -0.2588  0.1511
 6708PW      WP25059   6.333   5.875  10.813 -0.0622 -0.1228  0.2371
 6708PW      WM25060   6.475   5.878  11.003  0.1418 -0.0489  0.1685
 6709PW       W25061  10.624   2.046   8.993  0.1372 -0.0414  0.5602
 6709PW      WP25062  10.524   2.107   8.916  0.3122 -0.1347  0.2501
 6709PW      WM25063  10.491   2.081   9.018  0.0794 -0.0009  0.2196
 6710PW       W25064   6.350   3.320   1.359  0.2481 -0.2753  0.2777
 6710PW      WP25065   6.409   3.364   1.240 -0.2553 -0.2100  0.0421
 6710PW      WM25066   6.264   3.266   1.455 -0.1860  0.0491  0.0877
 6711PW       W25067   2.598   8.270   1.217 -0.4481 -0.0739 -0.2162
 6711PW      WP25068   2.685   8.285   1.326 -0.0241 -0.1684 -0.5266
 6711PW      WM25069   2.681   8.161   1.186  0.3908  0.4729 -0.0580
 6712PW       W25070   3.303   0.275   1.399 -0.3278 -0.2332 -0.0032
 6712PW      WP25071   3.368   0.319   1.283 -0.0806  0.1789  0.2783
 6712PW      WM25072   3.427   0.213   1.420 -0.2087 -0.0951 -0.2670
 6713PW       W25073   8.491   4.570   1.239 -0.1249 -0.0787  0.2304
 6713PW      WP25074   8.385   4.658   1.215 -0.2411 -0.3388 -0.3030
 6713PW      WM25075   8.388   4.487   1.192 -0.0429 -0.0470 -0.0098
 6714PW       W25076   7.681   3.501  10.235  0.2800  0.6842 -0.1653
 6714PW      WP25077   7.661   3.527  10.371  0.5547  0.0412  0.0145
 6714PW      WM25078   7.569   3.558  10.173 -0.3250 -0.2557 -0.0511
 6715PW       W25079   6.479   8.537   3.755 -0.1926 -0.1043 -0.2670
 6715PW      WP25080   6.569   8.473   3.668  0.1062  0.2492 -0.2313
 6715PW      WM25081   6.370   8.449   3.755 -0.3898  0.1227  0.1776
 6716PW       W25082   4.269  11.917  12.633 -0.2537 -0.2558 -0.0268
 6716PW      WP25083   4.237  11.782  12.652 -0.6930 -0.1395  0.0984
 6716PW      WM25084   4.297  11.942  12.767 -0.4067  0.1293 -0.0591
 6717PW       W25085  10.105   2.388   3.860  0.0193  0.2883  0.7193
 6717PW      WP25086  10.188   2.424   3.753 -0.4904 -0.2448  0.1022
 6717PW      WM25087  10.222   2.447   3.907  0.4373 -0.1149  0.2406
 6718PW       W25088   0.528   3.343   9.647 -0.1159  0.0093 -0.0067
 6718PW      WP25089   0.413   3.289   9.587 -0.3653  0.1466  0.3292
 6718PW      WM25090   0.606   3.459   9.652 -0.1090 -0.0049  0.3755
 6719PW       W25091   2.818   3.817  11.278 -0.1111  0.0319 -0.1124
 6719PW      WP25092   2.859   3.707  11.202 -0.0804 -0.0616  0.0377
 6719PW      WM25093   2.815   3.835  11.417  0.5034  0.0213 -0.0871
 6720PW       W25094   6.201   2.305  11.728  0.4899  0.5581  0.1964
 6720PW      WP25095   6.269   2.272  11.846 -0.1889 -0.1057  0.4440
 6720PW      WM25096   6.212   2.202  11.633  0.2675  0.4171  0.3179
 6721PW       W25097   2.034   8.765   3.425 -0.4161  0.1460  0.0445
 6721PW      WP25098   1.965   8.695   3.325  0.4233 -0.0705 -0.4309
 6721PW      WM25099   2.056   8.828   3.549 -0.2365  0.0500  0.0632
 6722PW       W25100   3.269   8.501  12.267 -0.5341  0.0552  0.3080
 6722PW      WP25101   3.263   8.379  12.335  0.1359 -0.2409 -0.1130
 6722PW      WM25102   3.328   8.609  12.334 -0.0239  0.0372 -0.0761
 6723PW       W25103   5.568   1.921   3.282 -0.0485  0.0738  0.4239
 6723PW      WP25104   5.566   2.058   3.254  0.1955  0.0127  0.0743
 6723PW      WM25105   5.449   1.849   3.269  0.1121 -0.1240 -0.0739
 6724PW       W25106   9.097   9.326   9.132 -0.4436  0.3338  0.4295
 6724PW      WP25107   9.045   9.383   9.015  0.2222  0.0892 -0.0120
 6724PW      WM25108   9.181   9.247   9.210  0.3789  0.1394 -0.5541
 6725PW       W25109   2.742   0.986  11.040 -0.2182  0.0907 -0.0989
 6725PW      WP25110   2.739   0.863  11.105  0.0866 -0.1241 -0.4718
 6725PW      WM25111   2.772   1.036  10.913 -0.2379 -0.1308 -0.1926
 6726PW       W25112   0.576   1.549   3.485 -0.1446 -0.1749  0.2951
 6726PW      WP25113   0.662   1.479   3.571 -0.2122 -0.1214  0.4070
 6726PW      WM25114   0.593   1.442   3.396 -0.1629  0.2491 -0.2449
 6727PW       W25115  11.797   4.566  11.505 -0.0160  0.2914 -0.0802
 6727PW      WP25116  11.761   4.555  11.640 -0.1349  0.0512 -0.1275
 6727PW      WM25117  11.767   4.485  11.394  0.0497  0.2795 -0.0898
 6728PW       W25118   9.975   4.257  12.347 -0.2295  0.0116 -0.3401
 6728PW      WP25119   9.957   4.284  12.483 -0.0934 -0.2001 -0.2776
 6728PW      WM25120   9.923   4.129  12.326 -0.2196 -0.0060 -0.2601
 6729PW       W25121   4.253  10.796  11.057  0.5331  0.2796 -0.1937
 6729PW      WP25122   4.220  10.932  11.068  0.0369  0.1847 -0.3656
 6729PW      WM25123   4.138  10.843  11.122  0.3721 -0.2585 -0.0661
 6730PW       W25124   8.858  11.206   4.780 -0.0068  0.1456 -0.2781
 6730PW      WP25125   8.777  11.302   4.717  0.1490  0.1576 -0.4666
 6730PW      WM25126   8.940  11.106   4.727 -0.3013 -0.1189 -0.2540
 6731PW       W25127   9.937  10.137  12.704 -0.0788 -0.0729 -0.0032
 6731PW      WP25128   9.850  10.209  12.786 -0.0690 -0.1583  0.0827
 6731PW      WM25129   9.806  10.121  12.658 -0.1501 -0.0281  0.1797
 6732PW       W25130   1.586   9.871  12.301 -0.0761  0.0722 -0.3101
 6732PW      WP25131   1.653   9.748  12.301  0.1101  0.1717 -0.3108
 6732PW      WM25132   1.603   9.866  12.162 -0.1327  0.1364 -0.3195
 6733PW       W25133   9.311   4.510   8.805  0.0546 -0.3104 -0.2272
 6733PW      WP25134   9.430   4.486   8.736  0.3534  0.2521  0.0600
 6733PW      WM25135   9.305   4.473   8.940  0.0508 -0.1060 -0.1706
 6734PW       W25136   1.330   4.027   4.211  0.7834  0.2790  0.0913
 6734PW      WP25137   1.399   4.101   4.308  0.3475 -0.1382  0.7611
 6734PW      WM25138   1.262   3.970   4.319  0.2526 -0.3140 -0.5108
 6735PW       W25139   6.475   0.658  12.209  0.2799 -0.4594  0.0087
 6735PW      WP25140   6.374   0.628  12.301  0.3882  0.0313  0.3041
 6735PW      WM25141   6.406   0.633  12.090  0.3312 -0.2728 -0.0606
 6736PW       W25142  10.406  11.490   0.813  0.1428  0.1893 -0.5114
 6736PW      WP25143  10.382  11.622   0.853 -0.0924 -0.0799  0.3369
 6736PW      WM25144  10.305  11.393   0.811  0.1813  0.0754  0.5472
 6737PW       W25145   6.395  10.521  10.787 -0.2144  0.0323 -0.0300
 6737PW      WP25146   6.444  10.404  10.846  0.6722  0.5138  0.2987
 6737PW      WM25147   6.391  10.512  10.647  0.0922 -0.2685 -0.0254
 6738PW       W25148  11.066  11.481  12.180  0.0695 -0.2416  0.3196
 6738PW      WP25149  11.142  11.533  12.075 -0.0210 -0.3249  0.2116
 6738PW      WM25150  11.123  11.513  12.304 -0.0845  0.3335  0.2565
 6739PW       W25151  12.164   2.430  11.512 -0.3152 -0.1263 -0.0663
 6739PW      WP25152  12.151   2.463  11.648  0.0564  0.4366 -0.1515
 6739PW      WM25153  12.116   2.547  11.452  0.0714 -0.1090 -0.3611
 6740PW       W25154  10.341   8.310  13.240  0.1225  0.2235  0.5741
 6740PW      WP25155  10.461   8.277  13.175  0.0525  0.6681  0.1914
 6740PW      WM25156  10.261   8.233  13.155  0.2868 -0.0763  0.6831
 6741PW       W25157   6.360  11.370  12.743  0.0201 -0.1749 -0.2526
 6741PW      WP25158   6.498  11.382  12.763 -0.0665  0.2259  0.1944
 6741PW      WM25159   6.330  11.500  12.784 -0.1742 -0.4262  0.4826
 6742PW       W25160  10.926   9.040   0.728  0.1959  0.3298  0.0720
 6742PW      WP25161  11.065   9.036   0.721  0.1781 -0.1413 -0.2267
 6742PW      WM25162  10.877   8.925   0.792  0.0475  0.2535 -0.1727
 6743PW       W25163   1.213   8.016   2.900  0.0542 -0.0908 -0.0157
 6743PW      WP25164   1.233   7.909   2.988 -0.2721 -0.0722  0.0870
 6743PW      WM25165   1.292   8.122   2.945  0.0572 -0.0791 -0.0479
 6744PW       W25166  12.165   2.048   3.743  0.2849  0.2588  0.0971
 6744PW      WP25167  12.113   1.967   3.642  0.0017  0.4606  0.0759
 6744PW      WM25168  12.052   2.126   3.771  0.4253  0.4437  0.1601
 6745PW       W25169   7.171   9.083   0.273  0.3718 -0.2826 -0.1592
 6745PW      WP25170   7.072   9.180   0.255  0.2964 -0.2549  0.3316
 6745PW      WM25171   7.208   8.987   0.369 -0.3506 -0.2921  0.1469
 6746PW       W25172   6.760   5.795  13.084 -0.2801  0.4753  0.2273
 6746PW      WP25173   6.674   5.699  13.141 -0.2828 -0.0978 -0.6481
 6746PW      WM25174   6.772   5.684  13.169 -0.3354 -0.0615 -0.4204
 6747PW       W25175   2.107   6.324   0.881 -0.4552 -0.1619  0.2061
 6747PW      WP25176   2.135   6.294   1.015 -0.1037  0.2543  0.2364
 6747PW      WM25177   2.173   6.441   0.920 -0.4079 -0.0641 -0.1543
 6748PW       W25178   3.331  10.751   3.268 -0.1403 -0.0453  0.1876
 6748PW      WP25179   3.385  10.848   3.354 -0.1862  0.0314  0.1306
 6748PW      WM25180   3.389  10.851   3.190 -0.3356 -0.2034 -0.1704
 6749PW       W25181  11.725   2.562  10.414  0.1846  0.1855  0.1092
 6749PW      WP25182  11.718   2.687  10.477 -0.3769  0.2684 -0.0907
 6749PW      WM25183  11.636   2.623  10.325 -0.1491 -0.0204  0.2896
 6750PW       W25184   6.674   5.596   2.290 -0.3119  0.3865  0.6656
 6750PW      WP25185   6.812   5.615   2.281 -0.2271 -0.3222 -0.3299
 6750PW      WM25186   6.604   5.573   2.410 -0.1303  0.1055  0.7234
 6751PW       W25187   6.957   4.077  11.488 -0.1566  0.1750 -0.2490
 6751PW      WP25188   6.949   4.045  11.352 -0.2157  0.3261 -0.2825
 6751PW      WM25189   7.071   4.068  11.407  0.1575  0.0369  0.1952
 6752PW       W25190  10.425   9.700  12.972 -0.0814  0.1805 -0.2430
 6752PW      WP25191  10.410   9.620  12.858  0.3713  0.1573 -0.2925
 6752PW      WM25192  10.542   9.730  13.042 -0.3030  0.3561  0.0674
 6753PW       W25193   2.112   2.000   0.913  0.0051  0.2028  0.3039
 6753PW      WP25194   2.186   1.923   0.823 -0.2060  0.3009  0.0417
 6753PW      WM25195   2.137   2.067   1.034 -0.2088  0.3092  0.2914
 6754PW       W25196   7.573   4.656  11.868 -0.0765  0.3432 -0.0644
 6754PW      WP25197   7.644   4.640  11.749 -0.2275  0.2801 -0.1479
 6754PW      WM25198   7.502   4.774  11.842 -0.4105  0.0835 -0.3961
 6755PW       W25199   9.338   5.998   4.580  0.2098  0.0257 -0.3327
 6755PW      WP25200   9.224   6.077   4.601 -0.0387 -0.3355 -0.2845
 6755PW      WM25201   9.345   5.918   4.694  0.1887 -0.0188 -0.3627
 6756PW       W25202   2.929   7.942   5.174 -0.4228 -0.2741  0.1779
 6756PW      WP25203   2.919   8.077   5.212  0.1106 -0.2327  0.2215
 6756PW      WM25204   2.992   7.830   5.118 -0.0578  0.1387 -0.2836
 6757PW       W25205  11.771   6.896   0.520 -0.0064  0.4083 -0.3328
 6757PW      WP25206  11.754   7.017   0.588  0.2994  0.1749  0.1892
 6757PW      WM25207  11.861   6.853   0.422 -0.0122 -0.4767 -0.0011
 6758PW       W25208   4.229   4.991  10.995  0.1057 -0.0722  0.0752
 6758PW      WP25209   4.283   4.865  10.964  0.1264  0.0259 -0.3040
 6758PW      WM25210   4.177   5.000  11.124  0.1362  0.3601  0.0630
 6759PW       W25211  10.914   3.554  11.071  0.2561  0.3451  0.0702
 6759PW      WP25212  10.802   3.471  11.060  0.4621  0.0233  0.3110
 6759PW      WM25213  11.000   3.509  10.969  0.3122  0.4971  0.0495
 6760PW       W25214   2.640   5.918   0.771 -0.1325 -0.0614 -0.1155
 6760PW      WP25215   2.616   5.841   0.656  0.6993 -0.5237 -0.0173
 6760PW      WM25216   2.516   5.857   0.746 -0.4032  0.2653  0.3658
 6761PW       W25217  10.710   6.705  12.970 -0.0973  0.3954  0.1891
 6761PW      WP25218  10.837   6.729  13.024  0.1535 -0.8862  0.3294
 6761PW      WM25219  10.803   6.730  13.071  0.3469 -0.3825  0.0134
 6762PW       W25220   3.202   9.836   3.542 -0.2457 -0.5494 -0.4917
 6762PW      WP25221   3.199   9.866   3.405 -0.2548  0.6294 -0.2839
 6762PW      WM25222   3.322   9.774   3.506  0.1819  0.1276 -0.3135
 6763PW       W25223  10.444   0.286   8.338 -0.1391 -0.2524  0.0764
 6763PW      WP25224  10.559   0.335   8.401 -0.1720 -0.0140 -0.0427
 6763PW      WM25225  10.418   0.423   8.325 -0.3295 -0.3116 -0.2236
 6764PW       W25226  10.334   6.925  10.688  0.2013 -0.1615  0.3739
 6764PW      WP25227  10.445   6.971  10.760  0.4826  0.1948 -0.2522
 6764PW      WM25228  10.218   7.002  10.705  0.1991 -0.0857  0.0528
 6765PW       W25229   2.012   0.947   9.334 -0.0713 -0.1886  0.3339
 6765PW      WP25230   1.936   0.870   9.422  0.3865 -0.2576  0.6886
 6765PW      WM25231   1.984   1.009   9.456 -0.0270  0.5769 -0.0138
 6766PW       W25232   3.275   6.481   4.552 -0.1370 -0.1121 -0.2662
 6766PW      WP25233   3.140   6.469   4.518 -0.3665 -0.2358  0.5765
 6766PW      WM25234   3.355   6.590   4.516  0.0942 -0.2939 -0.3123
 6767PW       W25235  -0.005   5.033  11.506 -0.3869 -0.2944  0.0482
 6767PW      WP25236   0.081   5.013  11.398 -0.1370  0.0227  0.1808
 6767PW      WM25237   0.085   5.069  11.607 -0.2492 -0.2500 -0.0877
 6768PW       W25238   9.162   9.484   0.497  0.3949 -0.0005  0.2392
 6768PW      WP25239   9.246   9.594   0.480 -0.1161  0.3315 -0.3237
 6768PW      WM25240   9.161   9.344   0.505 -0.0771 -0.0334 -0.1582
 6769PW       W25241   3.639   3.344  12.338  0.4177  0.0099 -0.0369
 6769PW      WP25242   3.610   3.399  12.213 -0.3459  0.1120  0.1617
 6769PW      WM25243   3.580   3.262  12.434  0.2593 -0.0743 -0.2035
 6770PW       W25244   7.824   9.642  13.077 -0.2281  0.2152  0.5883
 6770PW      WP25245   7.761   9.698  12.966 -0.1047  0.0623  0.4378
 6770PW      WM25246   7.958   9.682  13.068 -0.3650  0.5987 -0.1269
 6771PW       W25247   6.979   0.090   2.192 -0.2128  0.0663 -0.4883
 6771PW      WP25248   6.959   0.162   2.310  0.2275 -0.2900 -0.1797
 6771PW      WM25249   7.034   0.213   2.157  0.1372  0.3751  0.8577
 6772PW       W25250   8.049   2.489   2.573  0.1276  0.0296  0.0747
 6772PW      WP25251   8.003   2.545   2.693 -0.3705  0.3201 -0.2379
 6772PW      WM25252   8.071   2.358   2.617 -0.0369 -0.1398 -0.3260
 6773PW       W25253   0.671   9.678   3.436 -0.0327 -0.1051  0.1815
 6773PW      WP25254   0.720   9.550   3.410  0.4632  0.1978 -0.5487
 6773PW      WM25255   0.698   9.781   3.527 -0.9566  0.6323 -0.2813
 6774PW       W25256   3.215   7.478   1.914  0.2668 -0.0427  0.3884
 6774PW      WP25257   3.220   7.403   1.796 -0.0084 -0.0527  0.3801
 6774PW      WM25258   3.252   7.612   1.899 -0.3554  0.1028 -0.0362
 6775PW       W25259   8.128   9.146   9.112 -0.3000  0.0386  0.2233
 6775PW      WP25260   8.223   9.118   9.013 -0.3883 -0.0769  0.1699
 6775PW      WM25261   8.218   9.252   9.127 -0.1148 -0.0679 -0.0763
 6776PW       W25262   0.154  10.885  10.202 -0.2237  0.3985  0.0528
 6776PW      WP25263   0.247  10.988  10.184  0.1118  0.0931 -0.0183
 6776PW      WM25264   0.145  10.784  10.105 -0.1177  0.4280  0.0121
 6777PW       W25265  10.537  11.381  11.698 -0.1679  0.2750 -0.3590
 6777PW      WP25266  10.627  11.430  11.603  0.1542 -0.2420 -0.3399
 6777PW      WM25267  10.408  11.414  11.739 -0.2302 -0.1272 -0.2138
 6778PW       W25268   6.201   5.766   9.416 -0.0146 -0.2824  0.3186
 6778PW      WP25269   6.245   5.712   9.538  0.2367 -0.1620  0.2827
 6778PW      WM25270   6.075   5.823   9.439  0.0706  0.0493  0.0170
 6779PW       W25271   5.270   8.718   2.896  0.1709 -0.1838  0.0429
 6779PW      WP25272   5.181   8.815   2.850  0.4684  0.0800  0.0094
 6779PW      WM25273   5.377   8.807   2.887 -0.1572  0.2416  0.1593
 6780PW       W25274   3.969   0.965   8.635 -0.0025  0.2074  0.2690
 6780PW      WP25275   4.014   1.091   8.595 -0.1276  0.2043  0.1098
 6780PW      WM25276   3.853   0.900   8.591  0.2816 -0.0442 -0.1568
 6781PW       W25277   0.270   7.938  11.055  0.0645 -0.6638 -0.1802
 6781PW      WP25278   0.253   7.851  10.947 -0.2387 -0.6066 -0.1855
 6781PW      WM25279   0.327   7.816  11.016  0.3128 -0.5460 -0.1897
 6782PW       W25280   5.640   5.131   1.781 -0.0020 -0.1233  0.0303
 6782PW      WP25281   5.743   5.225   1.770  0.0033 -0.1395 -0.0626
 6782PW      WM25282   5.600   5.264   1.797 -0.1751 -0.1629 -0.0622
 6783PW       W25283   4.436   6.619   9.774 -0.1908 -0.2275 -0.2157
 6783PW      WP25284   4.476   6.718   9.683 -0.1886  0.2124  0.2433
 6783PW      WM25285   4.383   6.613   9.903  0.0117 -0.4468 -0.1406
 6784PW       W25286   9.806   7.700   3.492  0.0407 -0.0663  0.0194
 6784PW      WP25287   9.719   7.632   3.405  0.4046 -0.0112 -0.4067
 6784PW      WM25288   9.833   7.600   3.586  0.0567 -0.3126 -0.2372
 6785PW       W25289   5.082   1.172   4.896 -0.3382 -0.2662  0.1400
 6785PW      WP25290   5.046   1.216   5.024 -0.4441 -0.2883  0.1181
 6785PW      WM25291   5.217   1.142   4.874 -0.3807 -0.2640 -0.1440
 6786PW       W25292   0.445   9.777   8.912  0.0137  0.3058 -0.1215
 6786PW      WP25293   0.436   9.734   8.779  0.2367  0.2370 -0.1162
 6786PW      WM25294   0.348   9.876   8.932 -0.3614 -0.1841  0.7985
 6787PW       W25295  10.589  10.625   3.929  0.1863  0.0586  0.0177
 6787PW      WP25296  10.594  10.491   3.968  0.7023  0.1228  0.2016
 6787PW      WM25297  10.727  10.635   3.910  0.1721 -0.3580 -0.3861
 6788PW       W25298   8.878   1.469  11.391 -0.0149 -0.2647  0.0359
 6788PW      WP25299   8.762   1.403  11.350 -0.2910  0.2763 -0.1050
 6788PW      WM25300   8.885   1.578  11.303  0.4052  0.0128  0.3867
 6789PW       W25301   1.266   9.979   0.346 -0.3625 -0.1689  0.0914
 6789PW      WP25302   1.388  10.015   0.404  0.1912 -0.1290 -0.9864
 6789PW      WM25303   1.142   9.924   0.310 -0.4849 -0.0053  0.2506
 6790PW       W25304   6.935   2.177   3.244 -0.5519 -0.2702 -0.1285
 6790PW      WP25305   6.970   2.051   3.193  0.1583 -0.1882  0.1006
 6790PW      WM25306   6.850   2.283   3.274 -0.1950  0.0148 -0.0885
 6791PW       W25307   0.175   4.952   3.842 -0.1821  0.0895  0.2318
 6791PW      WP25308   0.063   4.944   3.757  0.1214 -0.4049 -0.1488
 6791PW      WM25309   0.312   4.966   3.822 -0.1287 -0.1948  0.3664
 6792PW       W25310  11.140   8.529   1.945 -0.4505 -0.0229 -0.2870
 6792PW      WP25311  11.229   8.470   2.035 -0.4237  0.4462  0.0163
 6792PW      WM25312  11.086   8.659   1.950  0.2954  0.3062  0.1687
 6793PW       W25313   1.964   1.341  10.624  0.3120 -0.1301  0.1496
 6793PW      WP25314   1.895   1.225  10.662 -0.0134  0.0457  0.1141
 6793PW      WM25315   1.964   1.280  10.498  0.3254  0.0360  0.0672
 6794PW       W25316   4.145   9.425   4.949  0.0365  0.3364  0.2235
 6794PW      WP25317   4.044   9.486   5.023 -0.5203  0.1002 -0.3014
 6794PW      WM25318   4.175   9.536   4.868  0.0140  0.0981 -0.1239
 6795PW       W25319  11.169  10.319   3.159 -0.0657  0.0096  0.0867
 6795PW      WP25320  11.196  10.198   3.095 -0.5316  0.0554 -0.2211
 6795PW      WM25321  11.060  10.320   3.246 -0.2738 -0.4711 -0.1507
 6796PW       W25322   2.382   0.260   8.251  0.1317  0.1173 -0.2480
 6796PW      WP25323   2.416   0.130   8.210 -0.0360 -0.1054  0.2850
 6796PW      WM25324   2.373   0.221   8.385 -0.0661 -0.1239 -0.3265
 6797PW       W25325   2.703   8.336   9.688  0.0454  0.2137  0.1646
 6797PW      WP25326   2.700   8.303   9.824 -0.5549  0.1157  0.1420
 6797PW      WM25327   2.655   8.425   9.591  0.0432 -0.1323 -0.1665
 6798PW       W25328   2.140   4.449  12.272 -0.1077  0.0189  0.2243
 6798PW      WP25329   2.222   4.354  12.210 -0.5240  0.0381 -0.3985
 6798PW      WM25330   2.117   4.486  12.405 -0.2917 -0.3201  0.2917
 6799PW       W25331  10.444   0.208   9.165 -0.2657 -0.1743 -0.2443
 6799PW      WP25332  10.334   0.124   9.144 -0.2231 -0.4597  0.5275
 6799PW      WM25333  10.441   0.344   9.200 -0.5645 -0.3002  0.2765
 6800PW       W25334   6.578   6.641  10.453  0.0140  0.3614 -0.3562
 6800PW      WP25335   6.484   6.745  10.448 -0.2923  0.0857 -0.5190
 6800PW      WM25336   6.655   6.641  10.570 -0.0970  0.1995 -0.2819
 6801PW       W25337  11.178   2.788   1.128  0.2454  0.2204 -0.1075
 6801PW      WP25338  11.115   2.760   1.250 -0.3578  0.2465 -0.3937
 6801PW      WM25339  11.182   2.729   1.001 -0.2211 -0.3688  0.1275
 6802PW       W25340   6.953  10.590   2.083  0.1159  0.0047 -0.1344
 6802PW      WP25341   7.004  10.576   2.212  0.8132  0.0938 -0.3782
 6802PW      WM25342   6.879  10.702   2.044  0.0972 -0.0763 -0.3371
 6803PW       W25343   7.356   9.521   0.876 -0.0472 -0.1556 -0.0145
 6803PW      WP25344   7.341   9.401   0.805  0.3562 -0.1357 -0.1428
 6803PW      WM25345   7.230   9.545   0.933 -0.1779 -0.5148 -0.1368
 6804PW       W25346   2.052   5.500   4.838 -0.0768 -0.2015 -0.1097
 6804PW      WP25347   1.933   5.461   4.901 -0.1125  0.4122  0.2498
 6804PW      WM25348   2.070   5.579   4.724  0.1352  0.0593  0.0975
 6805PW       W25349   0.653   3.290   4.875 -0.3259  0.1013 -0.4666
 6805PW      WP25350   0.677   3.404   4.798 -0.2665  0.2012 -0.3027
 6805PW      WM25351   0.517   3.282   4.910 -0.1435 -0.2571  0.2581
 6806PW       W25352   7.939  11.794  11.751  0.0545  0.3375  0.0356
 6806PW      WP25353   8.037  11.788  11.651  0.2612 -0.5641  0.2478
 6806PW      WM25354   7.808  11.775  11.707  0.0542 -0.2632  0.2582
 6807PW       W25355   1.053   5.810  11.781  0.4126 -0.2249  0.1796
 6807PW      WP25356   1.128   5.872  11.881 -0.2631 -0.0673  0.6271
 6807PW      WM25357   1.053   5.823  11.641 -0.4220  0.4176  0.2002
 6808PW       W25358   3.382  10.468  12.055 -0.1757  0.1295  0.0587
 6808PW      WP25359   3.490  10.387  12.092 -0.2184  0.1273  0.1791
 6808PW      WM25360   3.395  10.600  12.010 -0.3533  0.2069  0.2334
 6809PW       W25361   5.642  10.413   4.061  0.3403  0.1891 -0.0174
 6809PW      WP25362   5.709  10.293   4.040 -0.0653 -0.0280 -0.1240
 6809PW      WM25363   5.740  10.395   4.159  0.0943 -0.6363  0.1127
 6810PW       W25364   2.637   4.787   0.461  0.0380 -0.1436 -0.0607
 6810PW      WP25365   2.749   4.871   0.449  0.1985 -0.3362  0.0613
 6810PW      WM25366   2.510   4.847   0.457  0.2416  0.3094 -0.1037
 6811PW       W25367   9.628   3.308  12.236 -0.1249  0.5763 -0.0357
 6811PW      WP25368   9.711   3.218  12.303 -0.5210  0.1953 -0.0414
 6811PW      WM25369   9.753   3.372  12.243  0.2489 -0.1419  0.4040
 6812PW       W25370   3.844   9.961   9.066 -0.2973  0.5226  0.3713
 6812PW      WP25371   3.741   9.956   8.971 -0.1080  0.0667  0.1706
 6812PW      WM25372   3.944   9.942   8.970 -0.8536 -0.3133 -0.1088
 6813PW       W25373   5.645   4.512  12.901 -0.3575 -0.0783  0.0679
 6813PW      WP25374   5.540   4.580  12.963 -0.5652 -0.4589  0.1472
 6813PW      WM25375   5.626   4.454  13.027 -0.1328  0.1773  0.2241
 6814PW       W25376   8.086   1.799  11.231  0.3267  0.2441 -0.0971
 6814PW      WP25377   8.136   1.927  11.258  0.0170  0.3197  0.1526
 6814PW      WM25378   8.134   1.700  11.145  0.4168  0.3949 -0.2256
 6815PW       W25379   8.844  10.209   8.241 -0.3860  0.4233  0.0386
 6815PW      WP25380   8.968  10.252   8.291 -0.1307 -0.2443  0.0168
 6815PW      WM25381   8.742  10.113   8.252  0.1130 -0.1615 -0.1866
 6816PW       W25382   1.130  11.982  11.362 -0.2715  0.4640  0.2188
 6816PW      WP25383   1.035  11.930  11.273  0.4101 -0.6846  0.0651
 6816PW      WM25384   1.115  11.901  11.476  0.1489 -0.2686 -0.2063
 6817PW       W25385   1.320   4.473   1.219 -0.0370 -0.0482 -0.3282
 6817PW      WP25386   1.414   4.370   1.239  0.0099 -0.0023 -0.3093
 6817PW      WM25387   1.350   4.564   1.117 -0.0348  0.2322 -0.0862
 6818PW       W25388  10.516  12.091   0.731 -0.0013 -0.0931  0.0230
 6818PW      WP25389  10.525  12.025   0.854 -0.1900  0.2348  0.2204
 6818PW      WM25390  10.618  12.030   0.657 -0.3125 -0.8874  0.1981
 6819PW       W25391   6.696  10.921   0.782  0.1296  0.0675 -0.0158
 6819PW      WP25392   6.639  10.983   0.670  0.0888  0.1168  0.0325
 6819PW      WM25393   6.789  10.943   0.679  0.4228  0.1501  0.2588
 6820PW       W25394  11.698   9.573   4.193 -0.0011  0.1107  0.2384
 6820PW      WP25395  11.793   9.642   4.269  0.3899  0.0182 -0.1460
 6820PW      WM25396  11.776   9.683   4.157  0.1159 -0.0491 -0.0162
 6821PW       W25397   5.981   0.720   8.133  0.2310 -0.0647 -0.0176
 6821PW      WP25398   6.120   0.704   8.134  0.2928  0.3857  0.2808
 6821PW      WM25399   6.021   0.611   8.211 -0.3974  0.0678  0.5393
 6822PW       W25400  10.192  11.677   3.424  0.2985 -0.0688 -0.2016
 6822PW      WP25401  10.185  11.760   3.311  0.4220  0.7015  0.3203
 6822PW      WM25402  10.210  11.546   3.379 -0.1019 -0.1443 -0.1577
 6823PW       W25403   6.310   8.215  11.468  0.5611 -0.1935 -0.0174
 6823PW      WP25404   6.394   8.153  11.561  0.2329 -0.3332  0.1961
 6823PW      WM25405   6.326   8.278  11.344 -0.4728 -0.3652 -0.2900
 6824PW       W25406   2.485  11.166   1.639 -0.0722 -0.0963  0.1841
 6824PW      WP25407   2.476  11.055   1.554 -0.0368 -0.0893  0.1711
 6824PW      WM25408   2.497  11.302   1.607  0.1835 -0.1087  0.2203
 6825PW       W25409   5.812   3.806   3.908 -0.1766  0.0051  0.4026
 6825PW      WP25410   5.774   3.857   4.033 -0.1316  0.7247  0.1454
 6825PW      WM25411   5.895   3.693   3.913  0.1767  0.1577 -0.6828
 6826PW       W25412   9.217   9.296   3.041 -0.0317 -0.4010 -0.3281
 6826PW      WP25413   9.109   9.382   3.069  0.2221 -0.0940 -0.2674
 6826PW      WM25414   9.308   9.374   2.970 -0.3564  0.1025 -0.2216
 6827PW       W25415   9.877   8.177   3.329 -0.0276  0.5112  0.1122
 6827PW      WP25416   9.808   8.203   3.210  0.1191 -0.1075 -0.1302
 6827PW      WM25417   9.988   8.204   3.410 -0.2173 -0.0020  0.5770
 6828PW       W25418  10.079   1.193  11.749  0.0053 -0.0629  0.2312
 6828PW      WP25419   9.948   1.156  11.784  0.0644 -0.3593  0.1510
 6828PW      WM25420  10.151   1.304  11.793  0.1503  0.1080 -0.3989
 6829PW       W25421   8.115   0.838   4.959 -0.0186 -0.4417 -0.0113
 6829PW      WP25422   8.106   0.698   4.956  0.4354 -0.4779 -0.3836
 6829PW      WM25423   8.153   0.949   5.036  0.3601 -0.6214  0.0736
 6830PW       W25424  11.568   0.687   2.255 -0.1044  0.1519 -0.3900
 6830PW      WP25425  11.641   0.662   2.371  0.3143 -0.3373 -0.7397
 6830PW      WM25426  11.428   0.686   2.265 -0.0651 -0.2982  0.6433
 6831PW       W25427   2.030   5.100  13.176  0.2091 -0.1363  0.1668
 6831PW      WP25428   2.134   5.184  13.134 -0.2422  0.2862 -0.1718
 6831PW      WM25429   2.054   4.970  13.223 -0.4345 -0.3935 -0.1582
 6832PW       W25430   2.382   5.849  10.890 -0.2519 -0.1430  0.6619
 6832PW      WP25431   2.278   5.926  10.944 -0.2139  0.2575  0.2012
 6832PW      WM25432   2.458   5.868  11.006  0.1623 -0.4052  0.4469
 6833PW       W25433   8.548   9.334   1.368  0.3574 -0.0043  0.4976
 6833PW      WP25434   8.626   9.225   1.328  0.4142  0.1738  0.1040
 6833PW      WM25435   8.429   9.265   1.394  0.0964 -0.0007 -0.4932
 6834PW       W25436   1.527   9.420   4.182  0.3262 -0.0158  0.3947
 6834PW      WP25437   1.549   9.292   4.129  0.0668  0.2375 -0.3967
 6834PW      WM25438   1.572   9.309   4.254 -0.0939 -0.6175 -0.2141
 6835PW       W25439  11.150   8.536   0.872  0.3384 -0.0547  0.0209
 6835PW      WP25440  11.127   8.558   0.736  0.3876  0.5483  0.0966
 6835PW      WM25441  11.120   8.535   1.009  0.5763  0.1803  0.0815
 6836PW       W25442   4.584   8.055  12.627  0.3172 -0.1980 -0.2104
 6836PW      WP25443   4.537   8.104  12.504  0.1169 -0.0648 -0.0835
 6836PW      WM25444   4.463   8.010  12.680  0.4637  0.0662  0.3917
 6837PW       W25445  11.762   0.501   0.782 -0.0854  0.0235 -0.0825
 6837PW      WP25446  11.785   0.540   0.650  0.2253  0.1858  0.0148
 6837PW      WM25447  11.664   0.580   0.843  0.1985 -0.0083  0.4480
 6838PW       W25448   6.142   9.114   9.764  0.3537 -0.1228  0.0852
 6838PW      WP25449   6.236   9.171   9.851  0.2368  0.1209  0.0571
 6838PW      WM25450   6.110   9.090   9.630 -0.0084 -0.1607  0.1733
 6839PW       W25451   4.558   7.967   2.637 -0.3172 -0.1806 -0.0635
 6839PW      WP25452   4.644   7.971   2.527  0.0781  0.4011  0.2399
 6839PW      WM25453   4.489   7.920   2.749  0.0465 -0.1992  0.1626
 6840PW       W25454   6.663   7.558   0.502 -0.2478 -0.0152 -0.1888
 6840PW      WP25455   6.598   7.648   0.416 -0.3319  0.1852  0.0770
 6840PW      WM25456   6.751   7.537   0.608 -0.1890 -0.4205 -0.3113
 6841PW       W25457  10.698   0.783   4.488 -0.2403 -0.0188 -0.3136
 6841PW      WP25458  10.755   0.868   4.584 -0.3837 -0.2976  0.0310
 6841PW      WM25459  10.806   0.869   4.464 -0.1039 -0.1479 -0.1767
 6842PW       W25460   3.489   8.691  10.165  0.1307 -0.6078  0.2001
 6842PW      WP25461   3.476   8.642  10.295 -0.1410 -0.2852  0.3010
 6842PW      WM25462   3.530   8.768  10.274  0.4516 -0.1906 -0.1943
 6843PW       W25463   8.110   9.557   1.124 -0.2632  0.2341 -0.0817
 6843PW      WP25464   8.029   9.497   1.221 -0.1788  0.1980 -0.0333
 6843PW      WM25465   8.226   9.626   1.161 -0.0016 -0.2633  0.0642
 6844PW       W25466  11.252   5.451  10.508  0.0960  0.2654  0.1402
 6844PW      WP25467  11.240   5.393  10.635  0.3272 -0.0757  0.0129
 6844PW      WM25468  11.337   5.496  10.407 -0.3965  0.3156 -0.2738
 6845PW       W25469   1.075   2.793  10.395  0.1624  0.2937 -0.1113
 6845PW      WP25470   1.074   2.710  10.282  0.0070  0.0029  0.0970
 6845PW      WM25471   1.041   2.928  10.407 -0.6474  0.0963  0.1496
 6846PW       W25472   8.899   2.020   3.495  0.0539  0.0784  0.0754
 6846PW      WP25473   8.852   1.896   3.540 -0.0003  0.2213  0.4290
 6846PW      WM25474   8.887   2.087   3.372 -0.9860  0.2055  0.2019
 6847PW       W25475  10.704   9.924  12.576 -0.3790 -0.0567 -0.0809
 6847PW      WP25476  10.714   9.786  12.562  0.3412 -0.0612  0.2491
 6847PW      WM25477  10.629   9.914  12.694 -0.2308 -0.3883 -0.0106
 6848PW       W25478   4.740   5.512   9.182  0.0288  0.0927 -0.0210
 6848PW      WP25479   4.823   5.485   9.291 -0.2062 -0.6426  0.0050
 6848PW      WM25480   4.848   5.492   9.096 -0.1981 -0.0693 -0.2782
 6849PW       W25481   1.967   4.993   1.844  0.1373  0.1774 -0.0342
 6849PW      WP25482   1.903   5.065   1.743 -0.0320 -0.3905 -0.3528
 6849PW      WM25483   1.965   5.131   1.824 -0.0227  0.0892 -0.7910
 6850PW       W25484   9.283   1.613   8.632 -0.1927  0.1494 -0.1061
 6850PW      WP25485   9.284   1.701   8.523  0.2386  0.0859 -0.1613
 6850PW      WM25486   9.341   1.679   8.741 -0.0283 -0.6922  0.3585
 6851PW       W25487   5.219   4.365  13.131 -0.3167  0.1277  0.0484
 6851PW      WP25488   5.224   4.294  13.010 -0.0358  0.1617  0.0380
 6851PW      WM25489   5.126   4.397  13.031  0.1883  0.1482 -0.4342
 6852PW       W25490   6.510   2.325  12.083  0.1977 -0.0928  0.0309
 6852PW      WP25491   6.607   2.230  12.048  0.4266  0.1948 -0.1451
 6852PW      WM25492   6.401   2.319  11.995 -0.0078  0.0354  0.2715
 6853PW       W25493   2.101   1.355   9.125 -0.2918  0.2293  0.1285
 6853PW      WP25494   2.169   1.258   9.200 -0.3564  0.2305  0.1895
 6853PW      WM25495   2.135   1.491   9.123 -0.2563  0.2376  0.6553
 6854PW       W25496   1.252   2.617   5.565  0.0854  0.3400  0.1116
 6854PW      WP25497   1.149   2.631   5.658 -0.1050  0.0793 -0.0528
 6854PW      WM25498   1.280   2.721   5.655  0.0549  0.0614  0.4517
 6855PW       W25499   1.134   3.284  10.233 -0.6641 -0.0859 -0.5375
 6855PW      WP25500   1.167   3.184  10.325 -0.6403  0.2544 -0.1641
 6855PW      WM25501   1.086   3.411  10.263  0.3745  0.1933  0.2439
 6856PW       W25502   4.618   0.160   0.164  0.3381 -0.1775 -0.0089
 6856PW      WP25503   4.682   0.277   0.125  0.2759 -0.4143 -0.9430
 6856PW      WM25504   4.486   0.120   0.136  0.1882  0.1700  0.1767
 6857PW       W25505   1.371   0.909   8.876 -0.0611 -0.1070  0.2938
 6857PW      WP25506   1.322   1.034   8.917  0.0662  0.0663 -0.0571
 6857PW      WM25507   1.347   0.784   8.932 -0.2946 -0.2164 -0.0315
 6858PW       W25508   1.869   9.288   0.649 -0.1721  0.2747 -0.4017
 6858PW      WP25509   1.894   9.421   0.687 -0.6356  0.1407  0.4850
 6858PW      WM25510   1.933   9.228   0.540 -0.2552  0.0861 -0.3473
 6859PW       W25511   6.139   5.252   1.675  0.6399 -0.0753 -0.1349
 6859PW      WP25512   6.153   5.120   1.721 -0.1451 -0.2069 -0.2047
 6859PW      WM25513   6.207   5.364   1.628  0.2879  0.2686  0.1476
 6860PW       W25514   4.381   9.761   9.672  0.0550  0.0636 -0.3674
 6860PW      WP25515   4.461   9.818   9.771 -0.5266 -0.3400  0.3910
 6860PW      WM25516   4.280   9.855   9.696  0.1816  0.2003 -0.3612
 6861PW       W25517   6.143  10.011   3.484  0.1782  0.2902 -0.2913
 6861PW      WP25518   6.107  10.144   3.509  0.3338  0.2608  0.1356
 6861PW      WM25519   6.149   9.872   3.475 -0.1492  0.2429  0.0918
 6862PW       W25520  11.933   7.837   4.017 -0.0114 -0.1723 -0.1110
 6862PW      WP25521  11.848   7.886   3.917 -0.7316 -0.4882  0.3045
 6862PW      WM25522  12.059   7.897   4.027 -0.0805  0.0693 -0.5553
 6863PW       W25523   8.752  12.120   1.014 -0.0179 -0.4765 -0.2610
 6863PW      WP25524   8.841  12.039   0.943  0.0946 -0.1056 -0.5588
 6863PW      WM25525   8.733  12.173   1.142  0.3425  0.1545 -0.4477
 6864PW       W25526  11.510   5.125   4.411  0.0466  0.1309 -0.1162
 6864PW      WP25527  11.375   5.114   4.375  0.1166 -0.4322 -0.2575
 6864PW      WM25528  11.511   5.056   4.532 -0.0681  0.0048 -0.1853
 6865PW       W25529   9.962   6.412   0.787  0.1494  0.1418 -0.1496
 6865PW      WP25530   9.843   6.484   0.779 -0.0600 -0.2125 -0.3928
 6865PW      WM25531   9.958   6.344   0.664 -0.3561 -0.1305  0.0012
 6866PW       W25532   2.793   2.801   9.777  0.1987  0.5478  0.0478
 6866PW      WP25533   2.736   2.895   9.864 -0.3746  0.0738  0.2226
 6866PW      WM25534   2.844   2.703   9.863  0.1002  0.0550 -0.4273
 6867PW       W25535   9.918   0.194   1.650 -0.0619 -0.2125 -0.2422
 6867PW      WP25536   9.860   0.071   1.684  0.0805 -0.1181  0.4211
 6867PW      WM25537   9.868   0.307   1.717 -0.0835 -0.1370 -0.3856
 6868PW       W25538   0.589   4.899   1.740  0.0353  0.0194  0.4477
 6868PW      WP25539   0.631   4.940   1.613 -0.4365 -0.2540  0.1887
 6868PW      WM25540   0.506   4.807   1.805  0.3115 -0.3667  0.2698
 6869PW       W25541   8.102  11.976   8.994  0.0509  0.0067  0.1112
 6869PW      WP25542   8.106  12.054   8.878  0.0259 -0.4600 -0.2180
 6869PW      WM25543   8.030  11.874   8.931  0.0397  0.0256  0.0935
 6870PW       W25544   9.784   4.102  10.844  0.2338 -0.3181  0.0114
 6870PW      WP25545   9.689   4.002  10.868 -0.0311 -0.0981 -0.0927
 6870PW      WM25546   9.759   4.038  10.722 -0.4703 -0.0861  0.0153
 6871PW       W25547   2.349   1.500  12.885 -0.1830  0.1004 -0.5161
 6871PW      WP25548   2.337   1.370  12.938  0.3114  0.1368 -0.2847
 6871PW      WM25549   2.486   1.505  12.858 -0.1127  0.5207 -0.1398
 6872PW       W25550   8.535   3.298  10.282 -0.1050  0.3388 -0.0068
 6872PW      WP25551   8.580   3.401  10.199 -0.5489  0.0959 -0.5860
 6872PW      WM25552   8.578   3.209  10.381 -0.3526 -0.2763 -0.4155
 6873PW       W25553   3.178  11.172   3.702 -0.2234 -0.1459 -0.0195
 6873PW      WP25554   3.179  11.222   3.833  0.2456  0.4366 -0.2232
 6873PW      WM25555   3.314  11.142   3.699 -0.1078  0.3428 -0.0257
 6874PW       W25556   4.930   9.104  12.613 -0.5136 -0.4581 -0.0295
 6874PW      WP25557   4.990   9.005  12.533 -0.2004 -0.0907 -0.2686
 6874PW      WM25558   4.792   9.088  12.626 -0.4858 -0.4100  0.4024
 6875PW       W25559   1.700   5.094   8.746 -0.0266 -0.0006  0.1603
 6875PW      WP25560   1.711   5.177   8.634 -0.0022 -0.4042 -0.1477
 6875PW      WM25561   1.723   5.191   8.844  0.5399  0.0021  0.0413
 6876PW       W25562   1.875   9.612   3.200  0.2763  0.1491 -0.4704
 6876PW      WP25563   1.936   9.501   3.259 -0.1740  0.0327 -0.2017
 6876PW      WM25564   1.808   9.538   3.102  0.1506 -0.0937 -0.2077
 6877PW       W25565   6.158   5.243   0.581 -0.2828 -0.2720  0.0668
 6877PW      WP25566   6.272   5.168   0.611 -0.1630 -0.0615  0.1544
 6877PW      WM25567   6.023   5.230   0.545 -0.3281 -0.4891  0.3056
 6878PW       W25568  10.405  10.621  10.899 -0.1657 -0.0811  0.0021
 6878PW      WP25569  10.522  10.625  10.975 -0.1634  0.0672 -0.0073
 6878PW      WM25570  10.399  10.714  10.794 -0.1568 -0.4941 -0.3765
 6879PW       W25571   2.289   4.962   3.040 -0.0371  0.1974 -0.3281
 6879PW      WP25572   2.173   4.898   2.994 -0.1332 -0.2011  0.3845
 6879PW      WM25573   2.361   4.842   3.047 -0.3177  0.0437  0.1891
 6880PW       W25574  11.065   0.560   3.291  0.4232 -0.3847 -0.4976
 6880PW      WP25575  11.106   0.677   3.227 -0.0735  0.1057  0.0226
 6880PW      WM25576  11.158   0.570   3.396  0.2664  0.2433 -0.4029
 6881PW       W25577   1.160   3.580  12.469 -0.3737  0.1050  0.2476
 6881PW      WP25578   1.030   3.616  12.430 -0.1087  0.4400 -0.3975
 6881PW      WM25579   1.285   3.639  12.452  0.0137 -0.6632  0.1900
 6882PW       W25580   3.047   5.163   4.704  0.4294 -0.4479  0.2406
 6882PW      WP25581   3.074   5.060   4.794 -0.0105 -0.3124  0.5441
 6882PW      WM25582   2.969   5.242   4.790  0.4191 -0.1305 -0.0504
 6883PW       W25583   2.285   6.174   4.900 -0.4107  0.2631  0.3851
 6883PW      WP25584   2.359   6.263   4.821 -0.0262 -0.3334  0.0387
 6883PW      WM25585   2.334   6.087   4.998 -0.2456  0.2813  0.3206
 6884PW       W25586   7.319  11.164  11.401  0.2344  0.0637  0.0124
 6884PW      WP25587   7.319  11.025  11.416  0.0979  0.0326 -0.2479
 6884PW      WM25588   7.250  11.230  11.298  0.0711 -0.0210  0.0662
 6885PW       W25589   0.256   1.663   4.984 -0.1401 -0.0489  0.1176
 6885PW      WP25590   0.232   1.542   5.050 -0.7540 -0.2774 -0.4704
 6885PW      WM25591   0.183   1.776   5.022  0.1844  0.0828  0.3762
 6886PW       W25592   5.627  11.784  12.996 -0.0019  0.0963  0.0018
 6886PW      WP25593   5.629  11.828  12.863  0.1995  0.2023  0.0384
 6886PW      WM25594   5.744  11.753  13.065 -0.0407 -0.2356 -0.0721
 6887PW       W25595   3.528   1.537   2.406  0.3329 -0.5553 -0.2515
 6887PW      WP25596   3.424   1.507   2.494  0.0377  0.3253 -0.2563
 6887PW      WM25597   3.622   1.540   2.509 -0.4568  0.1146  0.5199
 6888PW       W25598   0.968   4.158   2.845  0.2482  0.2314  0.1523
 6888PW      WP25599   1.102   4.147   2.884  0.1719 -0.0235  0.3573
 6888PW      WM25600   1.058   4.139   2.739  0.1616  0.2903  0.0663
 6889PW       W25601   3.902   7.230   3.562  0.2250 -0.3593 -0.2730
 6889PW      WP25602   3.827   7.238   3.444 -0.1670 -0.0676 -0.0138
 6889PW      WM25603   3.928   7.149   3.673 -0.2421 -0.0368  0.0922
 6890PW       W25604   6.165   6.227   0.736 -0.0036 -0.4688 -0.1148
 6890PW      WP25605   6.054   6.298   0.784  0.2926 -0.1325  0.0954
 6890PW      WM25606   6.151   6.242   0.598  0.4488  0.2293 -0.1083
 6891PW       W25607   2.527   8.240   0.565  0.1367 -0.0765 -0.3280
 6891PW      WP25608   2.406   8.216   0.498 -0.1261  0.1958  0.0268
 6891PW      WM25609   2.628   8.256   0.470 -0.0057  0.2293 -0.4350
 6892PW       W25610   2.391   0.162  13.329  0.2825 -0.0645 -0.5419
 6892PW      WP25611   2.309   0.129  13.220 -0.5362 -0.6200  0.1742
 6892PW      WM25612   2.423   0.049  13.406 -0.1390  0.2360  0.1206
 6893PW       W25613   4.551   1.783  12.903  0.3805  0.1021 -0.2464
 6893PW      WP25614   4.567   1.649  12.940  0.3081  0.1322 -0.0995
 6893PW      WM25615   4.516   1.908  12.850 -0.5100  0.0392  0.1052
 6894PW       W25616   6.557   5.324  13.085 -0.1941  0.2360 -0.1893
 6894PW      WP25617   6.492   5.410  13.174 -0.2161  0.1817 -0.1532
 6894PW      WM25618   6.646   5.431  13.066  0.0803  0.0632  0.0672
 6895PW       W25619  10.752   1.292   3.949 -0.2416  0.0291  0.4416
 6895PW      WP25620  10.733   1.413   3.881 -0.1531 -0.0533  0.2658
 6895PW      WM25621  10.850   1.328   4.043  0.0888 -0.2752  0.2275
 6896PW       W25622   7.073   2.988   9.969 -0.1693  0.0359 -0.0847
 6896PW      WP25623   7.202   3.011  10.018 -0.2228  0.0367  0.0583
 6896PW      WM25624   6.952   3.026   9.910 -0.2103  0.4641  0.2451
 6897PW       W25625   4.009   6.276   3.322  0.1315 -0.3153 -0.0331
 6897PW      WP25626   4.134   6.246   3.379  0.1731 -0.1065 -0.0113
 6897PW      WM25627   4.033   6.412   3.300  0.8012 -0.4748 -0.4149
 6898PW       W25628   8.026  11.354  12.131  0.1372  0.0828 -0.2160
 6898PW      WP25629   7.924  11.441  12.172 -0.0694 -0.2084 -0.0982
 6898PW      WM25630   7.961  11.243  12.077  0.2605  0.0295 -0.2570
 6899PW       W25631   8.475   8.923   9.901  0.5959 -0.7041  0.1131
 6899PW      WP25632   8.412   8.802   9.869  0.1627 -0.4353 -0.1039
 6899PW      WM25633   8.506   8.955  10.034  0.6327 -0.1899 -0.0106
 6900PW       W25634   3.727   9.227   4.269  0.3386 -0.2727  0.2072
 6900PW      WP25635   3.811   9.282   4.367  0.0583  0.1656  0.2115
 6900PW      WM25636   3.779   9.259   4.143 -0.5739  0.5640 -0.0106
 6901PW       W25637   9.407   6.517  11.739 -0.1143  0.4500 -0.4065
 6901PW      WP25638   9.341   6.530  11.616 -0.2008  0.4732 -0.3584
 6901PW      WM25639   9.323   6.503  11.851  0.1326  0.0529 -0.2606
 6902PW       W25640   7.281  11.237   9.684  0.7925  0.1894 -0.2386
 6902PW      WP25641   7.386  11.330   9.684  0.4619  0.5916  0.2447
 6902PW      WM25642   7.267  11.205   9.820 -0.1143  0.2725 -0.2769
 6903PW       W25643   5.818   7.401   8.116  0.4180  0.1420 -0.0746
 6903PW      WP25644   5.865   7.493   8.210 -0.2623  0.2430  0.1940
 6903PW      WM25645   5.741   7.284   8.110  0.4887  0.0888  0.0250
 6904PW       W25646   7.332   9.737   9.697  0.3838  0.4425 -0.0545
 6904PW      WP25647   7.316   9.854   9.771  0.6283  0.0456  0.6717
 6904PW      WM25648   7.417   9.666   9.783  0.2488 -0.3546 -0.5214
 6905PW       W25649   2.495   4.496   2.958  0.0756 -0.2105  0.1552
 6905PW      WP25650   2.484   4.588   3.063 -0.5522 -0.0132 -0.0630
 6905PW      WM25651   2.571   4.399   2.891  0.2050  0.2339 -0.3735
 6906PW       W25652   3.584  11.841   1.097  0.0513  0.1297 -0.0707
 6906PW      WP25653   3.546  11.875   0.966  0.5848 -0.0119 -0.2744
 6906PW      WM25654   3.702  11.823   1.169 -0.3687 -0.3320  0.5503
 6907PW       W25655   9.212   5.839   1.765 -0.3492  0.0274 -0.3179
 6907PW      WP25656   9.157   5.829   1.894  0.4420  0.1051  0.0538
 6907PW      WM25657   9.335   5.906   1.763 -0.4167  0.2470  0.5861
 6908PW       W25658   5.667   3.370   0.512  0.2281  0.1113 -0.0599
 6908PW      WP25659   5.559   3.281   0.507 -0.0384  0.4149  0.0904
 6908PW      WM25660   5.719   3.361   0.641 -0.0330  0.1611  0.0523
 6909PW       W25661   1.357  11.600  12.129 -0.1518 -0.4858  0.0144
 6909PW      WP25662   1.476  11.666  12.098 -0.6513  0.7058  0.3179
 6909PW      WM25663   1.348  11.560  12.263 -0.2216  0.1585  0.2220
 6910PW       W25664   3.699   1.280   9.247  0.2033 -0.1947 -0.0783
 6910PW      WP25665   3.752   1.225   9.364  0.2011 -0.0816 -0.0235
 6910PW      WM25666   3.631   1.360   9.155 -0.0521 -0.4502 -0.1190
 6911PW       W25667   0.267   2.185   8.115 -0.2474 -0.1401  0.5193
 6911PW      WP25668   0.305   2.051   8.099 -0.1219 -0.0609  0.0633
 6911PW      WM25669   0.329   2.310   8.120 -0.0045 -0.1987 -0.2894
 6912PW       W25670  10.473   2.003   4.702  0.2722 -0.1459  0.2130
 6912PW      WP25671  10.342   2.010   4.751  0.1459  0.0671 -0.1395
 6912PW      WM25672  10.471   1.903   4.604  0.0325  0.1214 -0.0661
 6913PW       W25673  10.161  10.146   9.237 -0.1940  0.0974 -0.0513
 6913PW      WP25674  10.044  10.072   9.217 -0.2792  0.1718  0.1562
 6913PW      WM25675  10.156  10.078   9.114 -0.2258 -0.1810  0.1000
 6914PW       W25676  11.917   6.036   8.947  0.0327 -0.0461 -0.7226
 6914PW      WP25677  11.779   6.010   8.939 -0.0530  0.2000 -0.2748
 6914PW      WM25678  12.004   5.936   8.903  0.2289 -0.0917 -0.2595
 6915PW       W25679   4.263   1.834  10.942 -0.0941 -0.3487  0.3039
 6915PW      WP25680   4.219   1.768  11.058 -0.7390 -0.4144  0.0365
 6915PW      WM25681   4.169   1.930  10.904  0.0956 -0.0339  0.5952
 6916PW       W25682   7.807   1.398   3.804  0.1690  0.4815 -0.0102
 6916PW      WP25683   7.721   1.287   3.808 -0.1365  0.7188  0.3936
 6916PW      WM25684   7.890   1.313   3.878 -0.3185 -0.2204 -0.2145
 6917PW       W25685  11.739   4.378  11.074  0.1755 -0.5305  0.2539
 6917PW      WP25686  11.719   4.287  11.179  0.5540 -0.1772  0.6540
 6917PW      WM25687  11.753   4.326  10.945 -0.3379 -0.4636  0.1583
 6918PW       W25688   7.678  11.687  12.843 -0.1107  0.2101 -0.2962
 6918PW      WP25689   7.557  11.756  12.855 -0.3600 -0.2237 -0.1649
 6918PW      WM25690   7.647  11.552  12.867 -0.0811  0.3269  0.5435
 6919PW       W25691   9.390  10.256   0.217  0.0990 -0.1903 -0.0760
 6919PW      WP25692   9.462  10.252   0.337 -0.0833 -0.0826  0.0389
 6919PW      WM25693   9.418  10.362   0.130  0.2126  0.1253  0.3290
 6920PW       W25694  10.246   5.905   1.334  0.1449  0.0403 -0.1000
 6920PW      WP25695  10.178   5.796   1.278  0.2591  0.0624 -0.2841
 6920PW      WM25696  10.247   5.910   1.474 -0.3541  0.3657 -0.0944
 6921PW       W25697   5.142   8.614  12.895  0.0512  0.2575  0.0925
 6921PW      WP25698   5.175   8.690  13.008 -0.0617  0.7906 -0.2183
 6921PW      WM25699   5.267   8.666  12.860  0.0290  0.0949 -0.2445
 6922PW       W25700   3.383   2.519  12.983 -0.4425 -0.2511  0.0335
 6922PW      WP25701   3.478   2.457  13.065  0.3157  0.3168 -0.3566
 6922PW      WM25702   3.388   2.656  12.953 -0.3889 -0.3324 -0.3555
 6923PW       W25703   7.164   1.783   2.337 -0.1898 -0.2478  0.1544
 6923PW      WP25704   7.164   1.686   2.438  0.2148 -0.3474  0.0678
 6923PW      WM25705   7.051   1.853   2.291 -0.2182  0.0432  0.6285
 6924PW       W25706   7.170   8.348   8.680 -0.0473  0.0678  0.0928
 6924PW      WP25707   7.214   8.377   8.550  0.0539 -0.3883  0.0158
 6924PW      WM25708   7.179   8.308   8.814  0.1896  0.5766  0.2390
 6925PW       W25709   6.007   7.163   1.473  0.0304  0.0410 -0.0873
 6925PW      WP25710   5.922   7.114   1.373 -0.3614  0.2844  0.1141
 6925PW      WM25711   6.031   7.233   1.354  0.1064 -0.0974 -0.1547
 6926PW       W25712   3.100  12.118  10.984  0.0248 -0.0246  0.0848
 6926PW      WP25713   2.967  12.100  10.944  0.2428 -0.2477 -0.6227
 6926PW      WM25714   3.212  12.172  10.920 -0.1142  0.0594 -0.0908
 6927PW       W25715   5.932   2.028   0.838  0.1698  0.1120  0.2987
 6927PW      WP25716   5.806   2.086   0.823  0.1439  0.1188  0.5275
 6927PW      WM25717   6.031   1.946   0.893  0.2507  0.1176  0.1629
 6928PW       W25718   1.061   5.615   8.260  0.5518 -0.1504 -0.0625
 6928PW      WP25719   1.152   5.717   8.289  0.0947  0.2710 -0.0533
 6928PW      WM25720   1.175   5.535   8.280  0.2458 -0.5285  0.2526
 6929PW       W25721   8.382   9.374  11.470  0.2133  0.0702  0.3478
 6929PW      WP25722   8.337   9.492  11.530 -0.1128  0.1236  0.0113
 6929PW      WM25723   8.379   9.347  11.333 -0.4429  0.0895  0.3443
 6930PW       W25724   2.052   7.368   0.461  0.0898  0.2085  0.1762
 6930PW      WP25725   2.189   7.394   0.472  0.1135  0.1746 -0.0256
 6930PW      WM25726   1.928   7.414   0.414  0.0755 -0.0110 -0.0095
 6931PW       W25727   7.317   1.415  11.728  0.1028 -0.2010  0.0111
 6931PW      WP25728   7.349   1.510  11.630 -0.7172  0.2539  0.1372
 6931PW      WM25729   7.311   1.519  11.822  0.2212  0.1989 -0.4070
 6932PW       W25730  11.678   9.436  13.242  0.1964  0.2219 -0.0261
 6932PW      WP25731  11.738   9.425  13.368 -0.1751  0.1588  0.1526
 6932PW      WM25732  11.782   9.385  13.164 -0.2097 -0.7196 -0.0179
 6933PW       W25733   8.839   9.617   2.240 -0.2912  0.2184  0.2291
 6933PW      WP25734   8.859   9.622   2.102 -0.4420  0.4635  0.2110
 6933PW      WM25735   8.948   9.578   2.319 -0.1427 -0.4746 -0.2815
 6934PW       W25736  10.558   8.864   2.491  0.2609 -0.5756  0.1060
 6934PW      WP25737  10.659   8.884   2.397  0.1808  0.2075  0.1544
 6934PW      WM25738  10.424   8.905   2.487  0.3331 -0.3245  0.1615
 6935PW       W25739   0.520   0.625   2.007 -0.3231 -0.4429  0.5422
 6935PW      WP25740   0.493   0.510   1.932 -0.5433  0.1263 -0.3330
 6935PW      WM25741   0.638   0.550   2.008 -0.0268 -0.0250  0.0060
 6936PW       W25742   5.618   7.902   0.559 -0.0394  0.4832  0.0551
 6936PW      WP25743   5.634   7.944   0.426 -0.0860  0.8183  0.1506
 6936PW      WM25744   5.642   7.826   0.673  0.7850  0.0038 -0.3905
 6937PW       W25745   4.575   4.407  12.325 -0.2270 -0.3652  0.1530
 6937PW      WP25746   4.536   4.494  12.427 -0.5427 -0.2916 -0.0231
 6937PW      WM25747   4.686   4.400  12.410  0.3129 -0.1983 -0.4843
 6938PW       W25748   3.931   1.129  11.430 -0.1624  0.7254 -0.0146
 6938PW      WP25749   3.830   1.090  11.519  0.2552  0.0236  0.1915
 6938PW      WM25750   4.048   1.093  11.363 -0.3913 -0.0941 -0.0326
 6939PW       W25751   7.135   9.903   1.121 -0.1673  0.0876 -0.1735
 6939PW      WP25752   7.175   9.842   1.002  0.3631  0.2391 -0.0827
 6939PW      WM25753   7.263   9.957   1.104 -0.1786  0.1350 -0.1111
 6940PW       W25754   7.337   1.692   5.374 -0.1166 -0.3254  0.0217
 6940PW      WP25755   7.429   1.604   5.316  0.0681 -0.0400 -0.1313
 6940PW      WM25756   7.303   1.826   5.352  0.0332 -0.3758 -0.6049
 6941PW       W25757   2.039   7.297   2.937 -0.1593  0.1796  0.1819
 6941PW      WP25758   2.058   7.354   3.063 -0.2778 -0.1430  0.3514
 6941PW      WM25759   2.143   7.362   2.869 -0.4411 -0.0137 -0.4797
 6942PW       W25760   5.138   5.144   4.982 -0.5220 -0.1384  0.4462
 6942PW      WP25761   5.263   5.177   5.035 -0.1205 -0.5046 -0.2109
 6942PW      WM25762   5.082   5.037   4.912 -0.2199 -0.2193  0.3245
 6943PW       W25763   9.536  12.129   2.198  0.2089  0.2853  0.1033
 6943PW      WP25764   9.447  12.227   2.244 -0.4907 -0.1361 -0.2630
 6943PW      WM25765   9.593  12.004   2.171 -0.2155  0.1555 -0.2488
 6944PW       W25766  11.966  10.568  13.041 -0.5830  0.2528  0.2224
 6944PW      WP25767  12.045  10.680  13.011 -0.3749  0.1263  0.2905
 6944PW      WM25768  11.892  10.528  12.928 -0.2392  0.1381  0.0308
 6945PW       W25769   7.937  11.776  10.932 -0.2941 -0.3034  0.3694
 6945PW      WP25770   7.834  11.778  11.026 -0.7921  0.2552 -0.1467
 6945PW      WM25771   8.046  11.862  10.954 -0.0882 -0.2308 -0.6637
 6946PW       W25772   7.448   2.939  13.246 -0.2067  0.5105  0.2656
 6946PW      WP25773   7.506   2.903  13.368  0.2207  0.2462 -0.0032
 6946PW      WM25774   7.389   2.894  13.127  0.4977  0.2957 -0.0294
 6947PW       W25775  11.798   4.291  10.092  0.0350 -0.1630 -0.5475
 6947PW      WP25776  11.743   4.169  10.053 -0.1854 -0.0945 -0.4566
 6947PW      WM25777  11.697   4.388  10.083  0.2681  0.0841 -0.5782
 6948PW       W25778   1.989   1.152   0.180  0.5089  0.7632 -0.1608
 6948PW      WP25779   1.923   1.122   0.060  0.0269  0.1005  0.2336
 6948PW      WM25780   2.069   1.060   0.248 -0.1305  0.5247  0.3116
 6949PW       W25781   5.828  10.805   1.855  0.3729  0.4530 -0.0610
 6949PW      WP25782   5.820  10.914   1.767 -0.1477  0.1209 -0.4626
 6949PW      WM25783   5.954  10.778   1.909 -0.1513 -0.3296  0.9524
 6950PW       W25784   7.551   9.632   1.306  0.1012 -0.4205 -0.1694
 6950PW      WP25785   7.502   9.590   1.182  0.2926  0.2129 -0.4802
 6950PW      WM25786   7.596   9.713   1.201  0.4262 -0.0037  0.2669
 6951PW       W25787   7.037   8.563   0.228 -0.4973  0.4683  0.0688
 6951PW      WP25788   6.994   8.690   0.186 -0.1644  0.4196 -0.4660
 6951PW      WM25789   6.962   8.514   0.335 -0.2426  0.3493  0.1975
 6952PW       W25790   4.798   6.052  -0.021 -0.5252  0.0272 -0.4457
 6952PW      WP25791   4.771   6.127   0.094 -0.1140 -0.1060 -0.2533
 6952PW      WM25792   4.907   5.966  -0.034 -0.0993  0.5052 -0.2031
 6953PW       W25793   9.772   1.930  11.364 -0.0152 -0.1909 -0.0847
 6953PW      WP25794   9.807   1.858  11.249 -0.4783 -0.1165 -0.2830
 6953PW      WM25795   9.900   1.977  11.397  0.0905 -0.2635 -0.3765
 6954PW       W25796  10.125   5.783  10.133 -0.2179  0.4683 -0.0366
 6954PW      WP25797   9.995   5.748  10.172 -0.2791 -0.0147 -0.5946
 6954PW      WM25798  10.175   5.846  10.247 -0.4341 -0.0380  0.3570
 6955PW       W25799   9.967   6.583   2.442  0.3302 -0.1219 -0.0490
 6955PW      WP25800   9.828   6.600   2.450  0.3386 -0.0934  0.0463
 6955PW      WM25801   9.997   6.464   2.373 -0.0793  0.0132 -0.4936
 6956PW       W25802   9.249   6.991  11.075  0.5533 -0.1631  0.2874
 6956PW      WP25803   9.303   7.055  10.962  0.1189 -0.3729 -0.0523
 6956PW      WM25804   9.204   7.017  11.205  0.3664  0.4088  0.1249
 6957PW       W25805   0.477   3.222   3.835 -0.3034  0.2711 -0.1902
 6957PW      WP25806   0.578   3.193   3.743 -0.0957 -0.3047  0.1925
 6957PW      WM25807   0.418   3.095   3.822 -0.0173  0.1068  0.0609
 6958PW       W25808   0.365   5.882   0.038 -0.0374 -0.3357  0.0264
 6958PW      WP25809   0.476   5.912   0.118 -0.4657  0.6076  0.3488
 6958PW      WM25810   0.304   5.822   0.148 -0.4548 -0.4549 -0.2576
 6959PW       W25811   8.744   9.504   0.225  0.2329 -0.0683  0.0669
 6959PW      WP25812   8.625   9.485   0.154  0.5820  0.1239 -0.6139
 6959PW      WM25813   8.822   9.392   0.194 -0.1361 -0.2855 -0.1147
 6960PW       W25814   3.427   4.067   3.296  0.0538  0.6526 -0.0814
 6960PW      WP25815   3.409   4.000   3.418  0.4571 -0.1941 -0.4473
 6960PW      WM25816   3.508   4.169   3.347 -0.0785  0.5322  0.3936
 6961PW       W25817   8.583   2.277  12.449  0.1316 -0.0237  0.0781
 6961PW      WP25818   8.487   2.367  12.498  0.1861 -0.0105  0.1616
 6961PW      WM25819   8.555   2.239  12.581 -0.5630 -0.1098 -0.0758
 6962PW       W25820   8.795   8.877   9.223  0.1965  0.1503 -0.0011
 6962PW      WP25821   8.798   8.871   9.083 -0.3798  0.5234 -0.0442
 6962PW      WM25822   8.721   8.964   9.303  0.0639 -0.0282  0.0743
 6963PW       W25823   8.648   7.276  13.212 -0.2150  0.0444  0.0597
 6963PW      WP25824   8.569   7.281  13.097  0.1078  0.5184 -0.1568
 6963PW      WM25825   8.757   7.193  13.241 -0.2504  0.0729  0.2818
 6964PW       W25826   6.406   7.810   3.597 -0.1234  0.1469 -0.2251
 6964PW      WP25827   6.471   7.921   3.542  0.5081  0.1342  0.4310
 6964PW      WM25828   6.268   7.785   3.601 -0.1015  0.0603  0.1412
 6965PW       W25829   7.116  11.728   1.475 -0.2328  0.2840 -0.1235
 6965PW      WP25830   7.200  11.800   1.390  0.3834 -0.1601  0.0741
 6965PW      WM25831   7.152  11.828   1.566 -0.0702  0.3672 -0.2763
 6966PW       W25832  11.852   4.111  12.604  0.6628 -0.2117 -0.2017
 6966PW      WP25833  11.725   4.058  12.629  0.5108  0.1686 -0.1313
 6966PW      WM25834  11.841   4.183  12.484  0.0801 -0.0252 -0.0553
 6967PW       W25835   1.868   3.820   5.278  0.0177 -0.0410  0.0340
 6967PW      WP25836   1.909   3.688   5.252 -0.3649 -0.1280 -0.1567
 6967PW      WM25837   1.823   3.767   5.157  0.1578 -0.0247 -0.0267
 6968PW       W25838   6.765  10.602   9.407 -0.2571 -0.2816 -0.1791
 6968PW      WP25839   6.736  10.736   9.380 -0.6893 -0.2949  0.1725
 6968PW      WM25840   6.836  10.634   9.291 -0.0115  0.3451  0.1253
 6969PW       W25841   0.625   4.644  10.931  0.1369 -0.6941 -0.2865
 6969PW      WP25842   0.755   4.676  10.970 -0.0761 -0.7643  0.5932
 6969PW      WM25843   0.552   4.694  11.040  0.2625 -0.2715 -0.3846
 6970PW       W25844   8.557   9.075  12.723 -0.1557 -0.1633 -0.1547
 6970PW      WP25845   8.433   9.029  12.677 -0.1891 -0.1014 -0.1281
 6970PW      WM25846   8.634   9.015  12.623  0.0110  0.4513 -0.4228
 6971PW       W25847  10.019   8.306   0.319 -0.0549 -0.1752  0.3597
 6971PW      WP25848   9.990   8.194   0.241  0.0118 -0.0471  0.1451
 6971PW      WM25849   9.954   8.284   0.440 -0.2885 -0.5584  0.1731
 6972PW       W25850   3.503   2.727   9.148 -0.2625 -0.0420 -0.1118
 6972PW      WP25851   3.511   2.787   9.022 -0.0493 -0.0704 -0.1139
 6972PW      WM25852   3.583   2.688   9.040  0.5674 -0.3074  0.5364
 6973PW       W25853   7.637  10.950   0.508 -0.1380 -0.1380  0.1493
 6973PW      WP25854   7.644  11.042   0.614  0.1251 -0.0732  0.0805
 6973PW      WM25855   7.654  10.958   0.370 -0.2653 -0.2087  0.1286
 6974PW       W25856   9.898   9.983   3.345  0.0574 -0.0953 -0.1595
 6974PW      WP25857   9.938   9.935   3.219 -0.4191 -0.2420 -0.2636
 6974PW      WM25858   9.773   9.994   3.407  0.2652  0.8020  0.1690
 6975PW       W25859   8.358   8.058   9.503 -0.1665 -0.0844 -0.3427
 6975PW      WP25860   8.248   7.972   9.495 -0.0885 -0.2424  0.1193
 6975PW      WM25861   8.381   7.928   9.548  0.1715  0.0119 -0.2133
 6976PW       W25862   6.891   2.746   8.201  0.1352  0.0448 -0.7081
 6976PW      WP25863   6.988   2.843   8.178  0.1806  0.1250 -0.2311
 6976PW      WM25864   6.822   2.805   8.308  0.9975  0.2943 -0.2431
 6977PW       W25865   1.291   0.175  10.956 -0.5654 -0.3617 -0.5307
 6977PW      WP25866   1.295   0.129  10.824  0.0566  0.5917 -0.8991
 6977PW      WM25867   1.417   0.199  10.899 -0.4784  0.1449 -0.1663
 6978PW       W25868   6.039  11.305   8.811  0.1753 -0.0333 -0.0816
 6978PW      WP25869   6.143  11.333   8.900 -0.0931  0.1844  0.1747
 6978PW      WM25870   6.031  11.181   8.747  0.2077 -0.0842  0.0118
 6979PW       W25871   9.783   1.813   2.641  0.1690  0.1687 -0.5546
 6979PW      WP25872   9.853   1.808   2.762  0.2106  0.1373 -0.5799
 6979PW      WM25873   9.649   1.849   2.628  0.0958  0.2529  0.2167
 6980PW       W25874   5.037  11.518   4.757 -0.2234 -0.2194  0.1235
 6980PW      WP25875   5.148  11.460   4.819  0.0143  0.2387  0.1436
 6980PW      WM25876   5.039  11.565   4.626 -0.1894  0.0230  0.2092
 6981PW       W25877   8.096  10.523   9.921  0.0521 -0.3140  0.3920
 6981PW      WP25878   8.072  10.508   9.784  0.4718  0.1601  0.2499
 6981PW      WM25879   8.214  10.597   9.935 -0.2170  0.1350  0.3716
 6982PW       W25880   6.509  10.792   1.908 -0.3904  0.2104 -0.3356
 6982PW      WP25881   6.639  10.743   1.915 -0.3539  0.3529  0.1031
 6982PW      WM25882   6.455  10.746   2.028  0.1772  0.1300 -0.0988
 6983PW       W25883   3.159   5.425   9.694  0.3602  0.3162  0.1502
 6983PW      WP25884   3.163   5.290   9.658  0.0993  0.3647 -0.0782
 6983PW      WM25885   3.123   5.546   9.755 -0.1832  0.1872  0.1102
 6984PW       W25886   4.361   0.128   2.775 -0.1410  0.0825 -0.0326
 6984PW      WP25887   4.462   0.222   2.756 -0.3555  0.2594 -0.3462
 6984PW      WM25888   4.324   0.034   2.679  0.0843 -0.0132 -0.0286
 6985PW       W25889   6.874  10.306  10.867  0.3056 -0.2832  0.4333
 6985PW      WP25890   6.830  10.289  10.999 -0.3135 -0.3481  0.2378
 6985PW      WM25891   6.948  10.244  10.765 -0.0195 -0.1367  0.0943
 6986PW       W25892   3.922  11.888   4.922 -0.3078 -0.2050  0.1833
 6986PW      WP25893   3.789  11.930   4.940 -0.3351 -0.3300  0.2880
 6986PW      WM25894   3.949  11.751   4.915  0.4487 -0.1061  0.6407
 6987PW       W25895  11.786   3.435   1.395  0.1476  0.1486  0.0070
 6987PW      WP25896  11.742   3.411   1.264 -0.1324  0.2939  0.0704
 6987PW      WM25897  11.748   3.548   1.469  0.1639  0.0709  0.1351
 6988PW       W25898   6.091   1.114  10.913  0.0995  0.1951 -0.2277
 6988PW      WP25899   6.067   1.205  11.016 -0.2649 -0.1621  0.0170
 6988PW      WM25900   6.194   1.197  10.867  0.0857  0.2473 -0.1643
 6989PW       W25901   4.832   1.643  11.069  0.2478  0.0140 -0.2500
 6989PW      WP25902   4.850   1.673  10.934  0.0238  0.0341 -0.2775
 6989PW      WM25903   4.843   1.780  11.045  0.3172  0.0280 -0.1442
 6990PW       W25904  11.749   2.843  12.849 -0.0198 -0.0347  0.0303
 6990PW      WP25905  11.673   2.903  12.950 -0.3372  0.0788 -0.2672
 6990PW      WM25906  11.885   2.830  12.817 -0.0294 -0.4604  0.1357
 6991PW       W25907   7.579   5.425  12.114 -0.2874  0.0948 -0.5589
 6991PW      WP25908   7.523   5.300  12.084 -0.0512 -0.2102  0.1577
 6991PW      WM25909   7.546   5.548  12.055 -0.0724  0.5124  0.1364
 6992PW       W25910  11.429  10.437   9.239  0.1102 -0.2956 -0.2708
 6992PW      WP25911  11.296  10.457   9.277  0.1669 -0.0468 -0.1957
 6992PW      WM25912  11.487  10.561   9.208 -0.3093 -0.0463 -0.1027
 6993PW       W25913   8.834   2.407   4.321 -0.3435  0.2543  0.2925
 6993PW      WP25914   8.925   2.441   4.422  0.2289 -0.0653 -0.0846
 6993PW      WM25915   8.741   2.331   4.248  0.2383 -0.5464  0.3186
 6994PW       W25916   9.426   4.013   0.110  0.9154  0.2728 -0.2452
 6994PW      WP25917   9.326   4.102   0.150  0.5074 -0.3081  0.0953
 6994PW      WM25918   9.421   4.069   0.238 -0.0025  0.0392 -0.1442
 6995PW       W25919  10.347   5.832   4.178  0.1691 -0.1283 -0.4723
 6995PW      WP25920  10.448   5.884   4.259 -0.2005 -0.4280  0.2239
 6995PW      WM25921  10.437   5.740   4.123  0.4316 -0.1028 -0.1008
 6996PW       W25922   0.530   6.972   9.140  0.4200 -0.2180  0.3814
 6996PW      WP25923   0.607   6.911   9.040  0.1804  0.2304 -0.1030
 6996PW      WM25924   0.433   6.975   9.241 -0.1236 -0.1655 -0.1171
 6997PW       W25925   2.492   7.760   4.346 -0.0095  0.0215  0.2691
 6997PW      WP25926   2.548   7.855   4.259  0.0414 -0.0366  0.2377
 6997PW      WM25927   2.385   7.678   4.309  0.3148 -0.3855  0.1921
 6998PW       W25928   5.007   7.329  10.043  0.5118 -0.2642  0.3944
 6998PW      WP25929   4.892   7.313  10.120  0.4949  0.0819  0.4457
 6998PW      WM25930   5.059   7.449   9.994  0.3025 -0.2384  0.2301
 6999PW       W25931   7.149   2.586   0.424  0.1161  0.2744 -0.0586
 6999PW      WP25932   7.239   2.488   0.468  0.0172  0.2007 -0.0159
 6999PW      WM25933   7.146   2.547   0.290  0.2320  0.1508 -0.0260
 7000PW       W25934   5.389   4.135   2.219  0.3800 -0.1581 -0.0708
 7000PW      WP25935   5.499   4.202   2.274 -0.0225  0.4822  0.0074
 7000PW      WM25936   5.480   4.051   2.284  0.3080 -0.2613 -0.1010
 7001PW       W25937   9.494   4.100  12.634  0.2066  0.4550  0.1000
 7001PW      WP25938   9.370   4.085  12.696  0.2383 -0.4407  0.0139
 7001PW      WM25939   9.620   4.040  12.621 -0.1680 -0.5406  0.5122
 7002PW       W25940  10.494   3.130   1.713 -0.1000 -0.0711 -0.0784
 7002PW      WP25941  10.400   3.028   1.733 -0.2064  0.0029 -0.1922
 7002PW      WM25942  10.406   3.208   1.638 -0.2759 -0.4851 -0.3173
 7003PW       W25943   6.783   1.747   3.429 -0.1259  0.2431 -0.0651
 7003PW      WP25944   6.653   1.794   3.446 -0.1681  0.1111 -0.0119
 7003PW      WM25945   6.879   1.826   3.493  0.3644 -0.2344 -0.1620
 7004PW       W25946   2.506   0.854   2.932 -0.2440 -0.1472  0.0210
 7004PW      WP25947   2.480   0.827   3.067  0.2637 -0.1560  0.1271
 7004PW      WM25948   2.512   0.724   2.881 -0.0305 -0.1620  0.0814
 7005PW       W25949   7.728   6.926   1.998  0.1473 -0.3014 -0.0521
 7005PW      WP25950   7.734   7.037   2.083  0.3216  0.0525 -0.5059
 7005PW      WM25951   7.621   6.962   1.915  0.2657  0.0139 -0.0734
 7006PW       W25952   9.398   2.502   1.475 -0.1716 -0.1585 -0.4006
 7006PW      WP25953   9.286   2.500   1.559 -0.3305  0.0594 -0.6009
 7006PW      WM25954   9.453   2.629   1.454  0.1407 -0.2314 -0.0678
 7007PW       W25955  11.721  11.256   0.394 -0.3661 -0.1190  0.5783
 7007PW      WP25956  11.716  11.283   0.531  0.2342  0.1082  0.5677
 7007PW      WM25957  11.597  11.201   0.358 -0.3290 -0.0714  0.3725
 7008PW       W25958   7.585  11.634   4.939 -0.0439  0.0476  0.2908
 7008PW      WP25959   7.499  11.526   4.918  0.0364  0.0357  0.0077
 7008PW      WM25960   7.676  11.630   5.046  0.4061  0.2235 -0.0691
 7009PW       W25961   1.683   1.547  10.277 -0.2056  0.0987  0.3629
 7009PW      WP25962   1.667   1.415  10.234  0.5603  0.1945 -0.3424
 7009PW      WM25963   1.767   1.604  10.180 -0.1975 -0.1236  0.2370
 7010PW       W25964   0.138   6.816   0.615 -0.1230 -0.0323 -0.0392
 7010PW      WP25965   0.212   6.700   0.588  0.0362  0.1729 -0.5495
 7010PW      WM25966   0.041   6.845   0.712  0.0077  0.1130  0.0505
 7011PW       W25967   0.912   3.545   9.869  0.3871  0.4238 -0.3723
 7011PW      WP25968   0.854   3.562   9.743 -0.2360 -0.0661 -0.1778
 7011PW      WM25969   0.832   3.536   9.984  0.2547  0.3421 -0.4702
 7012PW       W25970   7.977   6.478   3.011 -0.3006 -0.4650  0.0787
 7012PW      WP25971   7.865   6.399   2.983 -0.3851 -0.1533 -0.5440
 7012PW      WM25972   8.088   6.393   3.002 -0.1945 -0.2944 -0.3180
 7013PW       W25973   0.222   2.251   8.628 -0.3071 -0.0801  0.0156
 7013PW      WP25974   0.355   2.292   8.644 -0.1950 -0.2355 -0.4483
 7013PW      WM25975   0.134   2.334   8.698 -0.2132 -0.1604  0.2335
 7014PW       W25976  11.991   4.721  12.578 -0.1750 -0.0266 -0.1196
 7014PW      WP25977  12.045   4.615  12.652  0.1776  0.0319 -0.2824
 7014PW      WM25978  11.869   4.717  12.647 -0.4521 -0.5128 -0.5989
 7015PW       W25979   9.139   9.264   2.003  0.1431 -0.1097  0.1141
 7015PW      WP25980   9.096   9.396   2.023  0.0247 -0.1650  0.2378
 7015PW      WM25981   9.014   9.226   1.951 -0.0006 -0.1188  0.4508
 7016PW       W25982   9.026   5.132   0.186  0.1070 -0.0523 -0.0494
 7016PW      WP25983   8.942   5.211   0.107 -0.3191  0.0093  0.4460
 7016PW      WM25984   9.126   5.129   0.087  0.2253 -0.1079  0.0694
 7017PW       W25985   6.933   4.251   1.898  0.2932  0.1561 -0.0665
 7017PW      WP25986   7.003   4.239   1.777  0.1257  0.0625 -0.1558
 7017PW      WM25987   6.966   4.117   1.921  0.0726  0.0947 -0.0973
 7018PW       W25988  11.715   0.347   9.610 -0.2117  0.1329 -0.2483
 7018PW      WP25989  11.813   0.444   9.637 -0.1681  0.0133  0.0303
 7018PW      WM25990  11.709   0.290   9.482  0.3677  0.1839 -0.3097
 7019PW       W25991   2.990   1.720   3.656  0.0713 -0.2761  0.0282
 7019PW      WP25992   2.852   1.697   3.658  0.0036 -0.0741 -0.7677
 7019PW      WM25993   3.113   1.709   3.721  0.1140 -0.3052 -0.0574
 7020PW       W25994   9.382  11.085  10.196  0.1758  0.1592 -0.2704
 7020PW      WP25995   9.357  10.961  10.137  0.2598 -0.2207  0.4431
 7020PW      WM25996   9.502  11.157  10.191  0.1089  0.3250  0.2061
 7021PW       W25997   1.309   7.142   9.540 -0.1922  0.3476  0.1531
 7021PW      WP25998   1.246   7.040   9.612 -0.2262  0.0612 -0.2669
 7021PW      WM25999   1.332   7.217   9.424  0.4702  0.1926  0.1628
 7022PW       W26000   3.023  10.538  11.642  0.1476  0.0960 -0.0082
 7022PW      WP26001   2.941  10.470  11.732  0.1820  0.1459  0.0621
 7022PW      WM26002   3.002  10.628  11.747 -0.0994 -0.3268  0.3157
 7023PW       W26003   7.017   3.328   9.534  0.0706 -0.4928  0.3126
 7023PW      WP26004   7.145   3.383   9.545 -0.0654 -0.2294  0.6811
 7023PW      WM26005   6.901   3.306   9.459  0.0955 -0.0417  0.1307
 7024PW       W26006  11.314   2.383  13.331  0.3320  0.0538 -0.2486
 7024PW      WP26007  11.447   2.401  13.369  0.1902  0.0542  0.2898
 7024PW      WM26008  11.354   2.273  13.255  0.0448 -0.1080 -0.1779
 7025PW       W26009   3.383   1.102  12.849  0.2712  0.0859  0.2204
 7025PW      WP26010   3.404   1.119  12.711 -0.2964 -1.1674 -0.0930
 7025PW      WM26011   3.310   1.036  12.949  0.5177 -0.3145  0.1464
 7026PW       W26012   4.948  10.571   1.151 -0.1669 -0.0538 -0.0470
 7026PW      WP26013   4.879  10.603   1.033 -0.3313  0.1133  0.0923
 7026PW      WM26014   4.865  10.569   1.264 -0.1050 -0.3617 -0.0022
 7027PW       W26015   5.944   0.147   1.324 -0.1048 -0.4007 -0.4286
 7027PW      WP26016   5.873   0.054   1.247 -0.4896 -0.3534 -0.1500
 7027PW      WM26017   5.889   0.224   1.222  0.0252  0.0587 -0.1643
 7028PW       W26018  10.409   8.799   1.968 -0.0175 -0.0925 -0.2065
 7028PW      WP26019  10.409   8.683   1.891 -0.1045 -0.1145 -0.1747
 7028PW      WM26020  10.363   8.729   1.856  0.0755 -0.6495  0.0852
 7029PW       W26021   7.262   7.751  10.527  0.3705  0.0919 -0.1062
 7029PW      WP26022   7.307   7.630  10.580  0.0117 -0.0510 -0.1182
 7029PW      WM26023   7.158   7.810  10.600  0.4616 -0.0115  0.1131
 7030PW       W26024  10.976   6.892   4.081 -0.3483 -0.3291 -0.3344
 7030PW      WP26025  11.106   6.840   4.078 -0.2872 -0.2092  0.0042
 7030PW      WM26026  10.905   6.836   4.187 -0.1263 -0.2378 -0.1332
 7031PW       W26027   0.492   3.856   9.501 -0.3177 -0.0671  0.1891
 7031PW      WP26028   0.556   3.741   9.546 -0.6550 -0.1997  0.3451
 7031PW      WM26029   0.383   3.939   9.469 -0.3458 -0.1172  0.1534
 7032PW       W26030   7.719   2.862   0.383 -0.6027  0.1552  0.2509
 7032PW      WP26031   7.777   2.872   0.510 -0.0190 -0.1018  0.0209
 7032PW      WM26032   7.675   2.995   0.388 -1.0384  0.0502 -0.2669
 7033PW       W26033   8.558   1.452   0.282 -0.8734 -0.0480  0.2895
 7033PW      WP26034   8.618   1.329   0.313  0.2461  0.4410  0.2998
 7033PW      WM26035   8.550   1.380   0.163 -0.7443 -0.4812  0.5309
 7034PW       W26036  10.952   2.528   2.383 -0.2002 -0.3768 -0.0988
 7034PW      WP26037  11.054   2.527   2.287  0.1402 -0.1622  0.2432
 7034PW      WM26038  11.043   2.529   2.490 -0.0893  0.3896 -0.1727
 7035PW       W26039   5.851   8.089  11.160  0.0015  0.2781 -0.2165
 7035PW      WP26040   5.919   8.211  11.173  0.1223  0.2348 -0.4244
 7035PW      WM26041   5.784   8.059  11.279  0.4436  0.2420  0.0349
 7036PW       W26042   4.400   2.002  11.730  0.5398 -0.1407 -0.0828
 7036PW      WP26043   4.395   2.071  11.608  0.0679 -0.3929 -0.2197
 7036PW      WM26044   4.285   1.924  11.712  0.5223 -0.0506 -0.3999
 7037PW       W26045   3.134   6.019   2.850  0.2917  0.3619  0.3038
 7037PW      WP26046   3.000   6.053   2.869  0.0911 -0.3211  0.2370
 7037PW      WM26047   3.135   6.109   2.743 -0.2583  0.0791  0.0390
 7038PW       W26048   6.448   6.830  11.332  0.2250 -0.0742 -0.4590
 7038PW      WP26049   6.533   6.857  11.440 -0.0002  0.2175 -0.3458
 7038PW      WM26050   6.400   6.911  11.436 -0.0117 -0.3675 -0.3319
 7039PW       W26051   1.467   8.517   2.452  0.1366 -0.2651  0.2779
 7039PW      WP26052   1.356   8.526   2.537 -0.3176  0.3623 -0.3192
 7039PW      WM26053   1.510   8.615   2.541  0.1265  0.1077 -0.1098
 7040PW       W26054  10.064   3.265   1.481 -0.0458 -0.7153 -0.3555
 7040PW      WP26055  10.191   3.267   1.539 -0.2916 -0.1659  0.2234
 7040PW      WM26056  10.025   3.189   1.370 -0.0858 -0.7250 -0.3346
 7041PW       W26057   9.610   1.595  12.157 -0.1692  0.4733  0.0040
 7041PW      WP26058   9.672   1.517  12.256 -0.0931  0.1298 -0.3004
 7041PW      WM26059   9.656   1.492  12.073 -0.2374  0.8178 -0.4753
 7042PW       W26060   2.847   6.228   3.331 -0.0516 -0.2685  0.1116
 7042PW      WP26061   2.821   6.169   3.207 -0.3382 -0.2478  0.1576
 7042PW      WM26062   2.971   6.165   3.339 -0.1547 -0.4744  0.1219
 7043PW       W26063   3.480   4.371   4.715  0.1339 -0.0985  0.2466
 7043PW      WP26064   3.455   4.372   4.853 -0.1078  0.3898  0.2113
 7043PW      WM26065   3.512   4.271   4.623  0.0275 -0.1952  0.3130
 7044PW       W26066   9.432  11.774   9.660 -0.1818 -0.1374  0.0179
 7044PW      WP26067   9.548  11.851   9.678 -0.1904 -0.0186 -0.3848
 7044PW      WM26068   9.313  11.838   9.697  0.0683  0.3674 -0.0014
 7045PW       W26069   3.325   7.715  12.885 -0.0838  0.0821 -0.1843
 7045PW      WP26070   3.358   7.845  12.845  0.0100  0.1334  0.0554
 7045PW      WM26071   3.421   7.614  12.874  0.4107  0.4864  0.1783
 7046PW       W26072   7.673   8.493   8.618  0.1299 -0.2063 -0.1500
 7046PW      WP26073   7.586   8.383   8.623 -0.1687  0.0322  0.6424
 7046PW      WM26074   7.786   8.533   8.690  0.0191 -0.2223  0.0361
 7047PW       W26075   1.593   5.982   9.593  0.1590 -0.2380 -0.2336
 7047PW      WP26076   1.676   5.925   9.495 -0.3689 -0.1654 -0.7489
 7047PW      WM26077   1.544   6.106   9.549  0.4034  0.1924  0.6032
 7048PW       W26078  12.073   8.757   1.892 -0.1816  0.0310 -0.1700
 7048PW      WP26079  12.054   8.758   1.753  0.1324 -0.3018 -0.2208
 7048PW      WM26080  11.985   8.650   1.915 -0.1984  0.0328 -0.2223
 7049PW       W26081   2.939   2.748   9.123 -0.6145  0.0178 -0.4805
 7049PW      WP26082   3.005   2.654   9.203 -0.4217  0.0870 -0.5544
 7049PW      WM26083   2.954   2.844   9.225  0.0427 -0.5065 -0.0381
 7050PW       W26084  11.351   5.959  10.641  0.2205 -0.2429  0.0679
 7050PW      WP26085  11.435   6.036  10.561  0.1052 -0.2038 -0.0173
 7050PW      WM26086  11.417   5.906  10.530 -0.0259 -0.2377 -0.0844
 7051PW       W26087   6.923   5.115   3.168  0.3231  0.0084 -0.6530
 7051PW      WP26088   6.869   5.042   3.062 -0.2800 -0.0182 -0.3499
 7051PW      WM26089   7.014   5.222   3.167 -0.1774  0.4706 -0.2475
 7052PW       W26090   0.313   2.004   2.543  0.0703 -0.4309  0.0861
 7052PW      WP26091   0.201   2.034   2.622  0.0740  0.0463 -0.0798
 7052PW      WM26092   0.302   1.984   2.681 -0.2236 -0.0985  0.1179
 7053PW       W26093   2.525   5.808   8.841 -0.1046 -0.1558 -0.2893
 7053PW      WP26094   2.609   5.729   8.762  0.1878 -0.0156 -0.1283
 7053PW      WM26095   2.454   5.918   8.789  0.2041  0.0772 -0.2305
 7054PW       W26096  10.120   3.734   9.804  0.2253 -0.3369  0.5727
 7054PW      WP26097   9.982   3.757   9.813  0.1168 -0.6761  0.0046
 7054PW      WM26098  10.146   3.847   9.726 -0.4103 -0.6326 -0.1284
 7055PW       W26099   5.435   4.217   9.946 -0.3265  0.2228 -0.0236
 7055PW      WP26100   5.339   4.172   9.854 -0.0206 -0.3262 -0.0991
 7055PW      WM26101   5.491   4.234   9.819 -0.3654  0.0437 -0.0669
 7056PW       W26102   2.673   0.071  10.828  0.3218 -0.2036 -0.4597
 7056PW      WP26103   2.690   0.030  10.695 -0.3898 -0.3295 -0.5368
 7056PW      WM26104   2.786   0.005  10.877  0.0981 -0.5361 -0.3731
 7057PW       W26105   9.514   8.906   0.654  0.0082 -0.1379 -0.3241
 7057PW      WP26106   9.506   9.009   0.559 -0.4568  0.1065 -0.0375
 7057PW      WM26107   9.612   8.825   0.712 -0.0486 -0.3441 -0.5103
 7058PW       W26108   7.188  10.926   0.669  0.1793 -0.2115  0.0469
 7058PW      WP26109   7.077  10.929   0.754  0.0632 -0.1023 -0.1060
 7058PW      WM26110   7.155  11.044   0.737 -0.3408 -0.1135 -0.3414
 7059PW       W26111   8.280   3.293   4.492 -0.0582  0.0245 -0.0596
 7059PW      WP26112   8.222   3.182   4.554  0.8560 -0.4953 -0.0446
 7059PW      WM26113   8.337   3.421   4.504 -0.1299  0.0354  0.2013
 7060PW       W26114   0.376  12.181   9.095  0.0575 -0.1546  0.3286
 7060PW      WP26115   0.378  12.049   9.047  0.0293 -0.1673  0.3607
 7060PW      WM26116   0.302  12.169   8.977  1.1259  0.3626 -0.4769
 7061PW       W26117   8.142   3.888   0.563 -0.3152  0.2958 -0.3501
 7061PW      WP26118   8.247   3.976   0.591 -0.2578  0.0090  0.4444
 7061PW      WM26119   8.109   4.008   0.500  0.2115  0.6755  0.0509
 7062PW       W26120   5.790   9.219  12.541  0.0259  0.3494  0.3435
 7062PW      WP26121   5.825   9.153  12.659 -0.3337 -0.3691  0.0758
 7062PW      WM26122   5.913   9.275  12.503  0.0832 -0.1091 -0.2195
 7063PW       W26123  11.762   5.018   0.363  0.0108 -0.1953  0.2735
 7063PW      WP26124  11.742   4.884   0.396  0.0251 -0.1418  0.5080
 7063PW      WM26125  11.646   5.001   0.287 -0.2380 -0.2338  0.6467
 7064PW       W26126   2.710   6.824  12.235  0.0014  0.4690 -0.3723
 7064PW      WP26127   2.570   6.814  12.231  0.0113  0.0125 -0.0053
 7064PW      WM26128   2.759   6.712  12.303 -0.8560  0.0599 -0.3636
 7065PW       W26129   5.186   2.001  10.760  0.0422  0.7430  0.0158
 7065PW      WP26130   5.316   1.991  10.709  0.0402  0.4393  0.0602
 7065PW      WM26131   5.293   1.998  10.850 -0.3083  0.0865  0.4557
 7066PW       W26132  11.250   2.049   3.778 -0.0764  0.4600 -0.2374
 7066PW      WP26133  11.312   2.001   3.893  0.0079  0.1404 -0.4115
 7066PW      WM26134  11.177   2.006   3.889  0.3173  0.1267 -0.0961
 7067PW       W26135   9.098  10.709   3.958 -0.4655  0.2268  0.3234
 7067PW      WP26136   9.071  10.572   3.940 -0.2460  0.1932  0.2294
 7067PW      WM26137   9.114  10.795   3.849 -0.1812 -0.0563  0.1324
 7068PW       W26138   6.037   4.107   9.982 -0.2724 -0.8940  0.1167
 7068PW      WP26139   5.948   4.113  10.090 -0.2582 -0.5684  0.1144
 7068PW      WM26140   6.055   4.112  10.121  0.2946 -0.1424  0.0459
 7069PW       W26141   4.619   9.597  12.537  0.5594 -0.4002  0.1108
 7069PW      WP26142   4.600   9.478  12.610  0.0503 -0.2459  0.2558
 7069PW      WM26143   4.663   9.723  12.578  0.1369 -0.2090  0.0111
 7070PW       W26144   8.686  12.114  11.307 -0.1816 -0.3745 -0.0678
 7070PW      WP26145   8.749  12.018  11.387  0.2736  0.0285  0.0758
 7070PW      WM26146   8.633  12.233  11.359  0.1931 -0.1263 -0.2321
 7071PW       W26147   6.102   4.700  10.048  0.3267  0.3161  0.0397
 7071PW      WP26148   5.995   4.614  10.072  0.2463  0.4573  0.1958
 7071PW      WM26149   6.105   4.728   9.910 -0.0414 -0.7132 -0.2213
 7072PW       W26150   1.882   7.977   3.708 -0.7395 -0.0963 -0.6823
 7072PW      WP26151   1.896   7.841   3.741  0.0451 -0.0218 -0.5970
 7072PW      WM26152   1.960   7.955   3.593  0.3206  0.3117 -0.1162
 7073PW       W26153   1.738   1.564   9.404  0.2889  0.6982 -0.3439
 7073PW      WP26154   1.617   1.517   9.352  0.1445 -0.2825  0.6817
 7073PW      WM26155   1.671   1.681   9.439 -0.4901  0.1691  0.0833
 7074PW       W26156   5.466   3.940   8.709  0.3923  0.2306 -0.0721
 7074PW      WP26157   5.522   4.046   8.781  0.1713  0.1716  0.1966
 7074PW      WM26158   5.422   3.983   8.584 -0.6219  0.0835  0.1875
 7075PW       W26159   8.126  10.112  11.608  0.1445  0.0236  0.1728
 7075PW      WP26160   8.172  10.136  11.478 -0.1389  0.4816  0.1445
 7075PW      WM26161   8.104   9.985  11.553  0.0549  0.0558  0.1318
 7076PW       W26162   5.416  10.817   8.507 -0.1138  0.0870  0.3131
 7076PW      WP26163   5.454  10.951   8.511  0.0909  0.0365  0.1726
 7076PW      WM26164   5.429  10.680   8.482  0.1368  0.2099 -0.3039
 7077PW       W26165   3.656   3.791  10.192  0.2417  0.4656  0.4411
 7077PW      WP26166   3.622   3.713  10.304  0.6490 -0.1957  0.1379
 7077PW      WM26167   3.546   3.837  10.119  0.0199  0.1999  0.5936
 7078PW       W26168   1.239   4.754  10.709 -0.0844 -0.0073 -0.0030
 7078PW      WP26169   1.308   4.746  10.830 -0.2380  0.3065  0.1110
 7078PW      WM26170   1.171   4.640  10.754  0.1857 -0.2496 -0.1904
 7079PW       W26171   4.847   9.108   8.507 -0.2720 -0.1647  0.9068
 7079PW      WP26172   4.771   9.220   8.473 -0.2798 -0.3143  0.3887
 7079PW      WM26173   4.982   9.144   8.516 -0.2106 -0.0068 -0.1237
 7080PW       W26174   9.869   8.739  11.725 -0.1129  0.2822  0.2973
 7080PW      WP26175   9.736   8.709  11.760 -0.0860 -0.0078  0.1635
 7080PW      WM26176   9.947   8.695  11.832  0.2470 -0.0399 -0.0846
 7081PW       W26177   7.140   5.195   1.458 -0.0307  0.0626  0.4582
 7081PW      WP26178   7.168   5.058   1.450  0.1264  0.0929  0.4717
 7081PW      WM26179   7.134   5.311   1.381  0.2469 -0.1460  0.1061
 7082PW       W26180   4.340   6.786   1.791 -0.1532  0.1978  0.2686
 7082PW      WP26181   4.269   6.903   1.762 -0.1449  0.0847 -0.2737
 7082PW      WM26182   4.409   6.676   1.844 -0.0125 -0.1426 -0.5458
 7083PW       W26183   4.980  10.816  12.093 -0.2934  0.0541  0.2114
 7083PW      WP26184   5.021  10.950  12.098  0.4392 -0.1037 -0.4536
 7083PW      WM26185   5.069  10.724  12.150 -0.0472  0.1751  0.0297
 7084PW       W26186   2.889   7.790   0.601  0.3151 -0.0127  0.1899
 7084PW      WP26187   2.873   7.832   0.734 -0.1356 -0.5531  0.3222
 7084PW      WM26188   2.998   7.795   0.513 -0.0658 -0.3495 -0.3310
 7085PW       W26189   5.640   6.948  10.668 -0.1475 -0.0228  0.2889
 7085PW      WP26190   5.684   6.823  10.622  0.0271  0.0277  0.3133
 7085PW      WM26191   5.581   7.054  10.736  0.1664  0.4871 -0.1837
 7086PW       W26192   6.838   1.583  12.453 -0.0943  0.0486  0.1432
 7086PW      WP26193   6.767   1.474  12.401 -0.1601 -0.0156  0.3621
 7086PW      WM26194   6.848   1.627  12.320  0.3556 -0.5062 -0.0274
 7087PW       W26195  10.115   2.207   9.533  0.2127 -0.2087  0.1206
 7087PW      WP26196   9.993   2.267   9.502  0.3119  0.1818  0.4470
 7087PW      WM26197  10.120   2.293   9.423  0.3213 -0.6786 -0.2602
 7088PW       W26198   5.386  10.827   9.559  0.1301 -0.0909  0.0721
 7088PW      WP26199   5.414  10.928   9.466 -0.0416 -0.1754 -0.0735
 7088PW      WM26200   5.295  10.725   9.531 -0.0115  0.0944 -0.1613
 7089PW       W26201   3.692   8.059   3.883 -0.2104 -0.2905 -0.1622
 7089PW      WP26202   3.713   7.976   3.994 -0.2621  0.1659  0.2010
 7089PW      WM26203   3.803   8.083   3.802 -0.3405 -0.2563 -0.3335
 7090PW       W26204   6.478   4.808  12.992  0.0633  0.2553 -0.0289
 7090PW      WP26205   6.528   4.698  13.064 -0.1861  0.0478 -0.1656
 7090PW      WM26206   6.390   4.814  12.884 -0.2550  0.2930  0.2258
 7091PW       W26207   3.892   5.348  11.075  0.5405 -0.2553 -0.4957
 7091PW      WP26208   3.991   5.402  11.158  0.3163 -0.0207 -0.3758
 7091PW      WM26209   3.789   5.328  10.982 -0.2867  0.0272  0.2920
 7092PW       W26210  12.057   6.019   9.987  0.0738 -0.3445  0.0364
 7092PW      WP26211  12.022   5.884   9.980 -0.1482 -0.2825 -0.1291
 7092PW      WM26212  12.117   6.066  10.104 -0.0319  0.1469 -0.0945
 7093PW       W26213   3.872   7.457  11.623  0.0343  0.2876  0.0156
 7093PW      WP26214   3.984   7.520  11.680  0.0146  0.2637  0.0814
 7093PW      WM26215   3.932   7.333  11.595  0.2795  0.3269  0.3362
 7094PW       W26216  10.545  10.487   4.449 -0.0317 -0.2494 -0.0359
 7094PW      WP26217  10.563  10.542   4.576  0.1585 -0.1521 -0.1015
 7094PW      WM26218  10.642  10.536   4.360 -0.2927  0.1513 -0.1131
 7095PW       W26219   3.981   7.381   9.605  0.1985 -0.2664 -0.1177
 7095PW      WP26220   3.992   7.450   9.484  0.0211  0.3547  0.1982
 7095PW      WM26221   3.985   7.252   9.551  0.4723 -0.2683 -0.0982
 7096PW       W26222   9.730   1.055  10.568 -0.2542 -0.4395 -0.5416
 7096PW      WP26223   9.657   1.134  10.478  0.0122  0.6909  0.1233
 7096PW      WM26224   9.619   1.078  10.651  0.1453 -0.2757 -0.0216
 7097PW       W26225   9.514   8.066   0.224 -0.0165 -0.1459 -0.2321
 7097PW      WP26226   9.409   8.001   0.158  0.0404 -0.4374 -0.0436
 7097PW      WM26227   9.560   7.984   0.328  0.2661  0.1481 -0.1145
 7098PW       W26228  10.938   4.586   2.130  0.4752  0.1807 -0.3547
 7098PW      WP26229  11.045   4.596   2.219 -0.1703 -0.4133  0.5793
 7098PW      WM26230  10.835   4.663   2.073  0.2863  0.2576  0.0764
 7099PW       W26231   3.029   6.918   9.546 -0.3134 -0.1465 -0.3584
 7099PW      WP26232   3.090   7.026   9.480  0.4681 -0.1892  0.2222
 7099PW      WM26233   2.912   6.908   9.469 -0.3998 -0.2333 -0.2181
 7100PW       W26234   1.568   1.300   3.093 -0.0904  0.3546  0.3880
 7100PW      WP26235   1.622   1.351   3.211  0.1065 -0.3505  0.6277
 7100PW      WM26236   1.475   1.377   3.022 -0.3666 -0.3084 -0.0212
 7101PW       W26237   9.154   3.417   8.413 -0.1646  0.4699 -0.4999
 7101PW      WP26238   9.289   3.386   8.432 -0.2835  0.1555 -0.0971
 7101PW      WM26239   9.230   3.309   8.365  0.1335  0.2790  0.3157
 7102PW       W26240   7.872   6.582  12.742  0.1968  0.0160 -0.1970
 7102PW      WP26241   7.888   6.719  12.764 -0.4731  0.0666  0.0889
 7102PW      WM26242   7.781   6.592  12.637  0.1766  0.3253 -0.1527
 7103PW       W26243   1.503   2.020   8.998  0.0764  0.1791  0.0860
 7103PW      WP26244   1.563   2.000   8.873 -0.1335 -0.3356  0.0551
 7103PW      WM26245   1.435   2.139   8.971 -0.0785  0.1273  0.2391
 7104PW       W26246   1.214  10.080   9.987 -0.1984  0.2653  0.0999
 7104PW      WP26247   1.128  10.010   9.901  0.3267  0.2490 -0.4549
 7104PW      WM26248   1.245  10.162   9.878 -0.0170 -0.0050 -0.0585
 7105PW       W26249  11.876   9.737   3.420  0.0369  0.0432  0.3119
 7105PW      WP26250  11.872   9.601   3.388 -0.0368  0.1234 -0.0405
 7105PW      WM26251  11.994   9.808   3.449  0.4193 -0.4321  0.0106
 7106PW       W26252   6.359   7.287   3.918 -0.1164  0.1133 -0.1731
 7106PW      WP26253   6.291   7.405   3.953  0.0703  0.2178 -0.1596
 7106PW      WM26254   6.290   7.196   4.000 -0.0520  0.3930  0.2052
 7107PW       W26255  11.410   1.903   0.699 -0.0730  0.5855 -0.0028
 7107PW      WP26256  11.360   1.826   0.594  0.6913 -0.0059  0.0221
 7107PW      WM26257  11.510   1.862   0.788  0.3250  0.5490 -0.4455
 7108PW       W26258   8.043   9.788   3.017 -0.1249 -0.0200  0.3312
 7108PW      WP26259   8.155   9.707   3.040 -0.3174 -0.2640  0.4297
 7108PW      WM26260   8.149   9.803   3.107 -0.0050 -0.0184  0.1909
 7109PW       W26261   4.463   1.951   2.772  0.5407  0.1158  0.3697
 7109PW      WP26262   4.552   2.040   2.711  0.3823 -0.1429 -0.2871
 7109PW      WM26263   4.471   1.814   2.803 -0.2788  0.0107  0.2385
 7110PW       W26264  10.518  11.719  10.089  0.1143  0.1545 -0.1342
 7110PW      WP26265  10.624  11.745  10.177  0.0005  0.1910 -0.0057
 7110PW      WM26266  10.584  11.597  10.105 -0.1058  0.0875  0.3510
 7111PW       W26267   1.176   3.130   4.459 -0.8166 -0.0399  0.1149
 7111PW      WP26268   1.255   3.114   4.344 -0.2300 -0.0954  0.5037
 7111PW      WM26269   1.241   3.228   4.535  0.1916 -0.2775 -0.3549
 7112PW       W26270   6.310  11.290   4.919 -0.3854  0.3628 -0.0164
 7112PW      WP26271   6.176  11.331   4.908 -0.5035  0.0270  0.1190
 7112PW      WM26272   6.390  11.404   4.923 -0.0846  0.1517  0.1495
 7113PW       W26273   7.721  10.400  10.251  0.1529  0.4718  0.3054
 7113PW      WP26274   7.705  10.498  10.152  0.0630  0.2362  0.0821
 7113PW      WM26275   7.856  10.437  10.245  0.3890 -0.3330 -0.2479
 7114PW       W26276   5.431   9.802   9.611 -0.1359  0.1842 -0.1028
 7114PW      WP26277   5.520   9.900   9.565  0.2494  0.0931  0.3980
 7114PW      WM26278   5.489   9.675   9.627  0.3780  0.4266  0.0544
 7115PW       W26279   3.631   3.297   1.753 -0.1549  0.6686  0.3894
 7115PW      WP26280   3.557   3.352   1.647 -0.3161  0.0071  0.1339
 7115PW      WM26281   3.686   3.218   1.854  0.3124  0.1861 -0.2019
 7116PW       W26282  10.542   7.568  10.182  0.0091 -0.0918 -0.0196
 7116PW      WP26283  10.622   7.677  10.221  0.0118 -0.1266  0.0730
 7116PW      WM26284  10.424   7.631  10.224  0.2535  0.1416  0.3463
 7117PW       W26285  11.218   9.903  10.795  0.1048  0.5260  0.2012
 7117PW      WP26286  11.166   9.866  10.670  0.0959  0.2968  0.2705
 7117PW      WM26287  11.310   9.997  10.747  0.3506  0.0826 -0.2615
 7118PW       W26288   9.986   8.096  11.934  0.0880 -0.1433  0.6512
 7118PW      WP26289  10.096   8.180  11.914 -0.3460  0.3977  0.3961
 7118PW      WM26290   9.856   8.131  11.971 -0.1646 -0.1172 -0.1627
 7119PW       W26291   8.175   2.827   4.496 -0.1128 -0.4875  0.1620
 7119PW      WP26292   8.311   2.832   4.528 -0.0887  0.0166  0.0259
 7119PW      WM26293   8.153   2.965   4.483 -0.2569 -0.4983  0.2820
 7120PW       W26294   5.279  11.359  12.710 -0.2601 -0.2138 -0.4075
 7120PW      WP26295   5.407  11.303  12.698 -0.2226 -0.1089 -0.5163
 7120PW      WM26296   5.217  11.473  12.657 -0.0422  0.0258 -0.1605
 7121PW       W26297  10.350   3.528   9.331  0.0992  0.0420 -0.0756
 7121PW      WP26298  10.448   3.604   9.395 -0.1220 -0.1619  0.5472
 7121PW      WM26299  10.392   3.429   9.421  0.3008  0.3630  0.1947
 7122PW       W26300   5.403   7.201  10.341  0.0450 -0.6063 -0.2909
 7122PW      WP26301   5.398   7.231  10.204 -0.3325 -0.4280 -0.2453
 7122PW      WM26302   5.298   7.231  10.429  0.2491 -0.1952 -0.1766
 7123PW       W26303   3.049   7.068   3.240 -0.2286 -0.4320  0.2856
 7123PW      WP26304   2.983   6.970   3.166 -0.2193 -0.0196 -0.3051
 7123PW      WM26305   3.005   6.936   3.255 -0.5355 -0.4005 -0.2425
 7124PW       W26306  11.659   5.850  12.666 -0.0946 -0.2314  0.4074
 7124PW      WP26307  11.782   5.829  12.730  0.0100 -0.0623  0.2646
 7124PW      WM26308  11.640   5.967  12.740  0.0469 -0.0698  0.1959
 7125PW       W26309  12.070  11.848   2.392  0.0001  0.2616 -0.0092
 7125PW      WP26310  12.207  11.873   2.386  0.0666 -0.1522 -0.4535
 7125PW      WM26311  11.957  11.772   2.358  0.0101  0.2766 -0.0758
 7126PW       W26312   3.870   4.728   9.892  0.2020  0.3216 -0.2502
 7126PW      WP26313   3.858   4.854   9.953 -0.2348  0.3698 -0.4161
 7126PW      WM26314   3.748   4.796   9.906  0.1025  0.0870  0.0776
 7127PW       W26315   6.270   0.672  12.795 -0.1168 -0.1659 -0.0262
 7127PW      WP26316   6.243   0.785  12.874 -0.0282 -0.1938  0.0447
 7127PW      WM26317   6.352   0.636  12.902  0.1030  0.1760 -0.0710
 7128PW       W26318   6.762   6.189  10.635 -0.2284 -0.3368 -0.1244
 7128PW      WP26319   6.892   6.168  10.588  0.0049 -1.1255  0.7244
 7128PW      WM26320   6.679   6.206  10.747  0.0641  0.1741  0.0347
 7129PW       W26321   5.631   6.865   1.325 -0.2615  0.1904  0.2739
 7129PW      WP26322   5.649   6.785   1.438  0.3417 -0.1307 -0.0295
 7129PW      WM26323   5.672   6.984   1.387 -0.2093  0.4059 -0.1492
 7130PW       W26324   9.885   3.194  13.386  0.2181 -0.0171 -0.2597
 7130PW      WP26325   9.789   3.258  13.308 -0.3573  0.0143  0.4196
 7130PW      WM26326   9.928   3.104  13.288  0.1579 -0.2031 -0.1206
 7131PW       W26327   4.283   4.367   1.336  0.6144  0.7415 -0.2854
 7131PW      WP26328   4.381   4.340   1.432  0.3399  0.1396 -0.1562
 7131PW      WM26329   4.266   4.463   1.436  0.1069  0.2123  0.1671
 7132PW       W26330   8.364   9.753   4.980  0.0253 -0.1953 -0.0483
 7132PW      WP26331   8.274   9.719   5.082  0.0928  0.2766  0.1797
 7132PW      WM26332   8.424   9.676   4.879 -0.0341  0.0949 -0.3109
 7133PW       W26333   7.248   3.539   1.214  0.0710 -0.1167 -0.0046
 7133PW      WP26334   7.172   3.524   1.098  0.0500 -0.0681  0.0029
 7133PW      WM26335   7.332   3.623   1.139  0.3379 -0.3022  0.0771
 7134PW       W26336   0.386   1.291   3.995  0.0454 -0.1136  0.0520
 7134PW      WP26337   0.464   1.206   3.916 -0.4296 -0.3167 -0.2174
 7134PW      WM26338   0.382   1.183   4.083  0.1501  0.0409  0.2511
 7135PW       W26339  10.571   7.509   3.561  0.1867  0.5842 -0.1976
 7135PW      WP26340  10.556   7.391   3.634 -0.1541  0.5678 -0.2874
 7135PW      WM26341  10.493   7.515   3.445 -0.1332 -0.0566 -0.0358
 7136PW       W26342   2.215   3.424  10.048  0.2319 -0.0908  0.3310
 7136PW      WP26343   2.120   3.370  10.135 -0.3348 -0.1137 -0.2648
 7136PW      WM26344   2.320   3.515  10.033  0.3870 -0.3414 -0.2143
 7137PW       W26345   7.259   4.378   3.680  0.0577 -0.0319  0.2662
 7137PW      WP26346   7.328   4.472   3.757  0.1513  0.2939 -0.1975
 7137PW      WM26347   7.158   4.285   3.711 -0.2023  0.2496  0.2837
 7138PW       W26348   1.250  10.858  11.223 -0.0394  0.4169 -0.1937
 7138PW      WP26349   1.259  10.741  11.146 -0.0111  0.2689  0.0310
 7138PW      WM26350   1.111  10.839  11.213  0.0647 -0.5494 -0.2798
 7139PW       W26351   1.257  11.247   4.431 -0.0791 -0.0536 -0.5122
 7139PW      WP26352   1.390  11.267   4.470 -0.2192 -0.5610  0.3299
 7139PW      WM26353   1.356  11.200   4.343  0.3859 -0.0834 -0.0037
 7140PW       W26354   4.407   8.579  10.530  0.3156 -0.1814  0.7438
 7140PW      WP26355   4.455   8.697  10.588  0.4573  0.1059  0.0803
 7140PW      WM26356   4.463   8.460  10.578  0.1924 -0.5018  0.1416
 7141PW       W26357   7.186   8.564  11.231 -0.0213  0.0683 -0.1435
 7141PW      WP26358   7.301   8.519  11.296 -0.0584 -0.1410 -0.2172
 7141PW      WM26359   7.142   8.456  11.309 -0.1515  0.4950  0.4075
 7142PW       W26360  10.722   4.694  11.862 -0.0174  0.4245  0.3194
 7142PW      WP26361  10.672   4.700  11.992 -0.9351 -0.1865  0.0480
 7142PW      WM26362  10.587   4.730  11.849 -0.1099 -0.0218 -0.1293
 7143PW       W26363   6.705   9.287   3.141 -0.1098 -0.1245  0.0767
 7143PW      WP26364   6.754   9.176   3.211  0.2855 -0.0112 -0.0093
 7143PW      WM26365   6.613   9.387   3.174  0.1297  0.1984 -0.2007
 7144PW       W26366  10.194  10.607  11.406 -0.0896  0.7001  0.2214
 7144PW      WP26367  10.164  10.653  11.277  0.6702  0.3562 -0.1095
 7144PW      WM26368  10.317  10.669  11.430  0.2674  0.1881 -0.1850
 7145PW       W26369   3.777   8.787   8.427 -0.1479 -0.0090  0.3747
 7145PW      WP26370   3.724   8.757   8.553  0.4721  0.1073  0.6818
 7145PW      WM26371   3.903   8.741   8.466 -0.0877 -0.1173  0.0695
 7146PW       W26372   4.698   4.667   3.791  0.1183  0.0800  0.3107
 7146PW      WP26373   4.811   4.588   3.766  0.0060  0.0498 -0.1354
 7146PW      WM26374   4.617   4.744   3.707  0.2577 -0.7405 -0.6764
 7147PW       W26375   0.687   3.602  12.669  0.5810 -0.4395 -0.3615
 7147PW      WP26376   0.738   3.578  12.797 -0.2334 -0.1618  0.0521
 7147PW      WM26377   0.709   3.562  12.537  0.2317  0.2244 -0.6450
 7148PW       W26378  11.218   0.326   2.244 -0.6725  0.6673 -0.2155
 7148PW      WP26379  11.341   0.316   2.310 -0.4821  0.5373 -0.5760
 7148PW      WM26380  11.306   0.288   2.141 -0.6099  0.1592  0.0087
 7149PW       W26381  11.216   8.155  13.142 -0.3810  0.2644  0.0734
 7149PW      WP26382  11.198   8.141  13.003  0.0883 -0.3045  0.0517
 7149PW      WM26383  11.185   8.162  13.278 -0.1305 -0.0116  0.1501
 7150PW       W26384   2.239   0.565  12.536 -0.3266 -0.0522 -0.1539
 7150PW      WP26385   2.189   0.625  12.420 -0.0224  0.0827 -0.2218
 7150PW      WM26386   2.279   0.431  12.526 -0.7234 -0.1733 -0.2012
 7151PW       W26387   8.578  11.211   2.076  0.3783 -0.4339 -0.3336
 7151PW      WP26388   8.581  11.090   2.146 -0.0685 -0.0764  0.3549
 7151PW      WM26389   8.563  11.274   2.200  0.4878 -0.0913 -0.4858
 7152PW       W26390   8.095   1.146   5.348  0.0506  0.0021 -0.4892
 7152PW      WP26391   8.209   1.070   5.378  0.0555  0.1896  0.0084
 7152PW      WM26392   7.970   1.130   5.407  0.0483  0.2671 -0.4135
 7153PW       W26393   0.713   6.232  10.099 -0.7257  0.0209 -0.4561
 7153PW      WP26394   0.717   6.189   9.966  0.3127  0.4001 -0.5990
 7153PW      WM26395   0.674   6.312  10.207 -0.5749 -0.1468 -0.2737
 7154PW       W26396   9.350   0.790   0.255  0.0375  0.2780  0.0816
 7154PW      WP26397   9.301   0.782   0.124 -0.0443 -0.1415  0.1322
 7154PW      WM26398   9.472   0.854   0.226  0.0460  0.2022 -0.0563
 7155PW       W26399   6.253  10.878   0.086  0.5262  0.1434 -0.2807
 7155PW      WP26400   6.187  10.938  -0.022  0.3330 -0.3185 -0.4306
 7155PW      WM26401   6.327  10.763   0.113 -0.2973 -0.3487  0.0910
 7156PW       W26402   7.368   6.954   9.644  0.1862  0.0697 -0.3866
 7156PW      WP26403   7.309   6.993   9.523  0.1732  0.4054 -0.2784
 7156PW      WM26404   7.263   6.870   9.682  0.4119 -0.0497 -0.0037
 7157PW       W26405   2.162   8.142   2.641 -0.2099  0.1927  0.1231
 7157PW      WP26406   2.147   8.006   2.610  0.4191  0.1155  0.0868
 7157PW      WM26407   2.123   8.263   2.582  0.0483  0.1423 -0.1655
 7158PW       W26408   2.661   4.775   1.778 -0.2099  0.4629 -0.3665
 7158PW      WP26409   2.549   4.750   1.698 -0.2025  0.1603 -0.2871
 7158PW      WM26410   2.660   4.899   1.843 -0.4198  0.0598  0.4607
 7159PW       W26411  12.071   5.986  13.173  0.1662 -0.1698  0.1648
 7159PW      WP26412  12.064   6.076  13.066  0.3438 -0.2256  0.1048
 7159PW      WM26413  12.133   5.867  13.134 -0.3330 -0.2117 -0.5966
 7160PW       W26414   6.020   0.399  10.363 -0.0479  0.1511 -0.0070
 7160PW      WP26415   6.014   0.514  10.442  0.0119 -0.1001  0.3794
 7160PW      WM26416   5.881   0.407  10.373 -0.0539  0.6925 -0.3327
 7161PW       W26417   0.173  10.687   0.990 -0.1604  0.2200 -0.1443
 7161PW      WP26418   0.093  10.639   1.095 -0.2137 -0.2290 -0.3761
 7161PW      WM26419   0.064  10.616   1.044 -0.0028  0.1880  0.1396
 7162PW       W26420   9.690   2.186   5.149 -0.4520 -0.3828  0.1885
 7162PW      WP26421   9.753   2.101   5.241 -0.3734 -0.1848  0.3207
 7162PW      WM26422   9.753   2.263   5.247 -0.0219 -0.0118 -0.3509
 7163PW       W26423   0.203   3.917  12.546 -0.3397  0.0836  0.2349
 7163PW      WP26424   0.223   3.806  12.630  0.4023  0.4291  0.5663
 7163PW      WM26425   0.275   4.016  12.614 -0.4707  0.2706  0.1042
 7164PW       W26426   6.433  11.824  12.173  0.2199 -0.0486 -0.0629
 7164PW      WP26427   6.425  11.692  12.219 -0.2516  0.0392  0.1337
 7164PW      WM26428   6.343  11.906  12.242  0.4609  0.1149  0.0620
 7165PW       W26429  11.661   9.890  12.881  0.5350 -0.1594 -0.0796
 7165PW      WP26430  11.544   9.813  12.879  0.2982  0.1627  0.4550
 7165PW      WM26431  11.735   9.908  12.764  0.2803  0.1138 -0.2034
 7166PW       W26432   4.646   7.107  11.408  0.0481 -0.1846 -0.1949
 7166PW      WP26433   4.755   7.172  11.467 -0.3565 -0.1249  0.5446
 7166PW      WM26434   4.685   7.007  11.318  0.3900  0.0072 -0.2711
 7167PW       W26435   5.484   7.730   8.449  0.0371  0.3503 -0.1374
 7167PW      WP26436   5.531   7.618   8.519  0.3036  0.1998 -0.5347
 7167PW      WM26437   5.417   7.782   8.338  0.0360  0.3667 -0.1288
 7168PW       W26438   4.713   1.104   2.728  0.1203  0.0734 -0.3096
 7168PW      WP26439   4.589   1.163   2.700 -0.0179  0.0031  0.1166
 7168PW      WM26440   4.754   0.971   2.745 -0.0502 -0.0117 -0.5384
 7169PW       W26441  10.323  10.941  11.958  0.1990  0.1668 -0.5681
 7169PW      WP26442  10.199  10.901  11.908 -0.0156 -0.3926  0.3002
 7169PW      WM26443  10.368  10.900  12.084 -0.4775 -0.0963 -0.3883
 7170PW       W26444   7.302   7.106   1.071 -0.4007 -0.3057  0.1853
 7170PW      WP26445   7.190   7.158   1.005 -0.3043  0.1193  0.3411
 7170PW      WM26446   7.390   7.036   0.988 -0.3936  0.0228 -0.0975
 7171PW       W26447   5.386  10.427   1.135 -0.1112 -0.1074 -0.1293
 7171PW      WP26448   5.499  10.443   1.216 -0.0839  0.3592 -0.2481
 7171PW      WM26449   5.366  10.306   1.202 -0.0429 -0.0733 -0.0466
 7172PW       W26450   8.189  11.754  12.628  0.0758 -0.0448 -0.2918
 7172PW      WP26451   8.210  11.892  12.629  0.1019 -0.0419  0.1568
 7172PW      WM26452   8.139  11.674  12.732 -0.2480  0.2407 -0.2194
 7173PW       W26453   6.091   3.158  11.788  0.0279 -0.0417  0.1025
 7173PW      WP26454   5.969   3.122  11.847 -0.2368 -0.3647 -0.5817
 7173PW      WM26455   6.100   3.237  11.673  0.3327  0.0507  0.1861
 7174PW       W26456   2.419   5.378   4.094  0.0145 -0.0712  0.1451
 7174PW      WP26457   2.308   5.454   4.132 -0.1229 -0.1937  0.0005
 7174PW      WM26458   2.340   5.378   3.978  0.1807 -0.6120  0.0152
 7175PW       W26459   1.710   7.452   0.107  0.3689 -0.3243  0.0506
 7175PW      WP26460   1.684   7.554   0.200  0.0684 -0.4147  0.0697
 7175PW      WM26461   1.780   7.573   0.106  0.0265 -0.1151  0.2673
 7176PW       W26462   5.393   5.866  12.573 -0.2975 -0.5011  0.0303
 7176PW      WP26463   5.383   5.790  12.456  0.0541 -0.3712 -0.0936
 7176PW      WM26464   5.272   5.892  12.638 -0.3596  0.2455 -0.3234
 7177PW       W26465   4.009   4.257   9.110 -0.1291  0.1110 -0.1857
 7177PW      WP26466   3.920   4.291   9.008 -0.3621  0.3014  0.0747
 7177PW      WM26467   4.148   4.238   9.111 -0.1182  0.1721  0.1505
 7178PW       W26468   7.379   2.704  11.499 -0.0409 -0.0736  0.3917
 7178PW      WP26469   7.460   2.607  11.439  0.3713  0.4313  0.0840
 7178PW      WM26470   7.426   2.780  11.606 -0.0771  0.1699  0.2396
 7179PW       W26471   9.795   9.810   1.586 -0.2133 -0.6072 -0.5544
 7179PW      WP26472   9.701   9.706   1.586 -0.2751 -0.5705  0.1128
 7179PW      WM26473   9.699   9.843   1.489  0.0323  0.0417 -0.6036
 7180PW       W26474   9.484   6.001  12.039  0.0482 -0.2378 -0.4364
 7180PW      WP26475   9.579   6.016  12.141 -0.3429 -0.2253 -0.0601
 7180PW      WM26476   9.614   5.960  12.005  0.1755 -0.0160 -0.2397
 7181PW       W26477   5.781   9.837  13.219 -0.2185  0.1786 -0.2957
 7181PW      WP26478   5.662   9.790  13.162 -0.2668  0.0250 -0.0783
 7181PW      WM26479   5.706   9.763  13.312 -0.2068  0.5597  0.0331
 7182PW       W26480   8.866  11.270  13.166 -0.2026  0.2031 -0.7281
 7182PW      WP26481   8.747  11.342  13.180 -0.4272 -0.2775  0.2510
 7182PW      WM26482   8.800  11.170  13.237 -0.1441  0.5411 -0.1728
 7183PW       W26483   8.288   7.615  10.370 -0.2370  0.0859 -0.0599
 7183PW      WP26484   8.321   7.653  10.240  0.0398  0.3045  0.0696
 7183PW      WM26485   8.387   7.664  10.456 -0.0760 -0.2948 -0.0212
 7184PW       W26486   1.803   3.293   5.297 -0.0720  0.2637  0.1971
 7184PW      WP26487   1.685   3.290   5.222  0.1893 -0.0278 -0.2234
 7184PW      WM26488   1.896   3.367   5.223  0.0031  0.0938  0.1204
 7185PW       W26489   3.813   2.833  10.318 -0.1981  0.2243 -0.2452
 7185PW      WP26490   3.809   2.747  10.429 -0.1013  0.2867 -0.1925
 7185PW      WM26491   3.824   2.880  10.450 -0.2366  0.1852 -0.2280
 7186PW       W26492   4.570  11.480   3.088  0.6051  0.1602 -0.3515
 7186PW      WP26493   4.621  11.437   3.211  0.2351 -0.2011 -0.3173
 7186PW      WM26494   4.529  11.589   3.009 -0.1280  0.0113 -0.2105
 7187PW       W26495   2.948  11.374  11.330 -0.0310  0.0400 -0.2670
 7187PW      WP26496   2.871  11.354  11.215  0.3327 -0.1202 -0.4876
 7187PW      WM26497   2.894  11.353  11.457  0.1865  0.5913 -0.0658
 7188PW       W26498   3.397   3.809   0.216 -0.2435 -0.2446 -0.2060
 7188PW      WP26499   3.470   3.710   0.283  0.4244  0.3379 -0.0055
 7188PW      WM26500   3.294   3.793   0.309 -0.2302  0.3899 -0.0577
 7189PW       W26501   4.979   0.686   2.231  0.3692  0.0843  0.0575
 7189PW      WP26502   4.878   0.782   2.219  0.4983  0.2087 -0.0517
 7189PW      WM26503   5.051   0.613   2.326  0.1114 -0.4013 -0.0972
 7190PW       W26504  10.757   0.840   9.586  0.3735  0.6188  0.1792
 7190PW      WP26505  10.766   0.707   9.630  0.2728  0.4792 -0.2036
 7190PW      WM26506  10.635   0.892   9.628 -0.2103 -0.0514 -0.5277
 7191PW       W26507   8.979  11.787   1.516  0.3690  0.0180  0.4352
 7191PW      WP26508   9.111  11.746   1.501  0.2518 -0.1755 -0.2570
 7191PW      WM26509   8.929  11.866   1.621  0.3508  0.0807  0.3800
 7192PW       W26510   0.959   8.199  12.754  0.0943 -0.0704 -0.0186
 7192PW      WP26511   0.956   8.070  12.699 -0.0249 -0.2097  0.3042
 7192PW      WM26512   0.824   8.235  12.750 -0.0575 -0.4702  0.6887
 7193PW       W26513   8.096   9.242   9.736  0.1819 -0.0048  0.0611
 7193PW      WP26514   7.982   9.266   9.659  0.1579  0.1733  0.1486
 7193PW      WM26515   8.070   9.105   9.724  0.0032  0.0362 -0.0480
 7194PW       W26516   6.036   7.977   2.761  0.1161  0.2635 -0.2607
 7194PW      WP26517   5.916   8.039   2.726  0.0161  0.0600 -0.2812
 7194PW      WM26518   6.078   7.854   2.814  0.1036  0.6188  0.6625
 7195PW       W26519   8.850   2.948   8.819 -0.4580 -0.4417  0.0718
 7195PW      WP26520   8.790   3.046   8.740  0.5699  0.0485 -0.1796
 7195PW      WM26521   8.989   2.938   8.810 -0.4100  0.3664 -0.5978
 7196PW       W26522   9.488  10.110   3.484 -0.0531  0.3775 -0.0188
 7196PW      WP26523   9.590  10.024   3.442  0.1311  0.2645  0.6080
 7196PW      WM26524   9.421  10.191   3.577 -0.0497 -0.1382  0.4588
 7197PW       W26525  10.503   7.941  12.920 -0.2487 -0.2132 -0.0595
 7197PW      WP26526  10.560   7.895  13.040 -0.4729  0.4760  0.3415
 7197PW      WM26527  10.417   7.833  12.942 -0.2704 -0.1066  0.4647
 7198PW       W26528   4.050   0.114   4.600  0.0284 -0.1140  0.8226
 7198PW      WP26529   3.915   0.145   4.612 -0.2397 -0.6237 -0.2556
 7198PW      WM26530   4.053   0.250   4.633  0.3599 -0.0941  0.7277
 7199PW       W26531  12.158   8.531   3.333  0.1453 -0.1354  0.0712
 7199PW      WP26532  12.052   8.460   3.275  0.0659  0.1905 -0.2007
 7199PW      WM26533  12.065   8.618   3.391  0.1267 -0.3646  0.3928
 7200PW       W26534  10.403  11.919   8.250 -0.3023 -0.1822  0.2757
 7200PW      WP26535  10.535  11.886   8.283 -0.3719 -0.5951  0.1612
 7200PW      WM26536  10.504  12.007   8.291 -0.3112 -0.0223 -0.0306
 7201PW       W26537   0.345   5.435  10.561  0.1590 -0.0363 -0.4457
 7201PW      WP26538   0.431   5.525  10.626 -0.1678  0.0202 -0.0686
 7201PW      WM26539   0.228   5.475  10.495 -0.1356 -0.2076 -0.0483
 7202PW       W26540  10.589   9.596   8.568  0.1993 -0.1303  0.0177
 7202PW      WP26541  10.676   9.696   8.522 -0.1113  0.2282  0.1843
 7202PW      WM26542  10.508   9.641   8.673  0.0095  0.0583 -0.2033
 7203PW       W26543   1.559  10.971   9.480 -0.0183 -0.0422 -0.0986
 7203PW      WP26544   1.464  11.069   9.508  0.3317  0.4510 -0.5313
 7203PW      WM26545   1.523  10.885   9.375  0.4552 -0.3195 -0.0509
 7204PW       W26546   8.062   3.105   4.888 -0.2219  0.3694 -0.0048
 7204PW      WP26547   7.941   3.158   4.935 -0.1746 -0.0708  0.6819
 7204PW      WM26548   8.045   3.168   4.764  0.1014 -0.0932 -0.2995
 7205PW       W26549   3.695   1.443  13.261 -0.3050  0.2791 -0.0812
 7205PW      WP26550   3.727   1.572  13.217 -0.5541  0.3215 -0.1456
 7205PW      WM26551   3.782   1.350  13.202 -0.0664  0.3350  0.1717
 7206PW       W26552  11.432   8.089   9.499  0.1380 -0.2840  0.1357
 7206PW      WP26553  11.569   8.112   9.517  0.1551 -0.2970  0.0293
 7206PW      WM26554  11.457   8.004   9.391  0.2117 -0.8035  0.5414
 7207PW       W26555  11.863  10.531   9.558 -0.0602 -0.1162 -0.1349
 7207PW      WP26556  11.843  10.666   9.590  0.1149 -0.1092 -0.0488
 7207PW      WM26557  11.901  10.535   9.423 -0.1925  0.4886 -0.1703
 7208PW       W26558   4.264  10.200   0.803  0.0938 -0.0756  0.1832
 7208PW      WP26559   4.136  10.215   0.860 -0.0852 -0.0013 -0.2228
 7208PW      WM26560   4.309  10.328   0.838 -0.2804  0.1970 -0.2791
 7209PW       W26561   1.383   6.128   8.809  0.4367  0.6058  0.2604
 7209PW      WP26562   1.321   6.247   8.848 -0.2721  0.1826  0.5381
 7209PW      WM26563   1.333   6.060   8.697 -0.2436  0.2503  0.7452
 7210PW       W26564   6.657   5.805   8.589 -0.2235 -0.2207  0.2102
 7210PW      WP26565   6.670   5.925   8.518  0.0177 -0.0036  0.6065
 7210PW      WM26566   6.626   5.681   8.530 -0.0229 -0.4079  0.4862
 7211PW       W26567   4.995  10.818  13.201 -0.1050  0.0250  0.0427
 7211PW      WP26568   5.113  10.747  13.178 -0.1954 -0.1363  0.0654
 7211PW      WM26569   5.087  10.922  13.212  0.0695 -0.1105 -0.1130
 7212PW       W26570   0.576   7.552   1.183 -0.1089 -0.0772  0.0310
 7212PW      WP26571   0.542   7.611   1.061  0.1111  0.0183  0.0135
 7212PW      WM26572   0.533   7.444   1.260  0.3972  0.0309  0.4891
 7213PW       W26573   5.552   1.082   9.465  0.6010  0.3928 -0.2774
 7213PW      WP26574   5.572   0.962   9.395 -0.5387  0.0587 -0.1415
 7213PW      WM26575   5.469   1.190   9.432  0.1360  0.2368  0.2943
 7214PW       W26576   1.751   9.702   2.296  0.0888 -0.0360 -0.1662
 7214PW      WP26577   1.767   9.839   2.274 -0.1501 -0.0691 -0.6237
 7214PW      WM26578   1.849   9.668   2.201  0.1918 -0.0711 -0.0488
 7215PW       W26579   3.094   8.590   2.282 -0.0345 -0.2824 -0.0731
 7215PW      WP26580   3.128   8.540   2.408 -0.4492 -0.0684  0.1369
 7215PW      WM26581   3.066   8.455   2.261 -0.0265 -0.3156  0.1196
 7216PW       W26582   2.414   7.431  12.637 -0.2411  0.2901  0.2407
 7216PW      WP26583   2.511   7.527  12.668 -0.2085  0.2149  0.3763
 7216PW      WM26584   2.523   7.350  12.669 -0.5989 -0.3105  0.0159
 7217PW       W26585   2.246   8.448  10.434  0.4033  0.0063 -0.0279
 7217PW      WP26586   2.160   8.478  10.541 -0.2371 -0.3107 -0.4231
 7217PW      WM26587   2.372   8.468  10.491  0.2380  0.4454  0.2142
 7218PW       W26588  10.669   6.088   9.018 -0.3162 -0.0784 -0.1448
 7218PW      WP26589  10.652   6.186   8.920  0.0631  0.0004 -0.1377
 7218PW      WM26590  10.588   6.115   9.129 -0.2887  0.1412 -0.1757
 7219PW       W26591   8.004   2.308  10.937  0.0514  0.0639 -0.1688
 7219PW      WP26592   7.931   2.250  10.833  0.1375 -0.5620  0.0983
 7219PW      WM26593   7.927   2.419  10.901  0.0541 -0.0091 -0.4041
 7220PW       W26594   2.864   9.355   3.165  0.0576 -0.0531 -0.3355
 7220PW      WP26595   2.895   9.223   3.198  0.2137  0.0353 -0.1179
 7220PW      WM26596   2.727   9.367   3.190  0.0700 -0.1592 -0.2161
 7221PW       W26597   8.422   6.984  11.134 -0.0911 -0.0705  0.2572
 7221PW      WP26598   8.427   6.942  11.001 -0.0931  0.0358  0.2233
 7221PW      WM26599   8.283   6.984  11.121 -0.0540  0.2541 -0.3018
 7222PW       W26600  11.744   4.006   8.875 -0.0378  0.0049  0.8666
 7222PW      WP26601  11.879   4.035   8.899  0.2145  0.0456 -0.3236
 7222PW      WM26602  11.642   3.922   8.829  0.6301 -0.4949  0.1851
 7223PW       W26603   4.145   7.714   2.386 -0.3886 -0.1114 -0.2731
 7223PW      WP26604   4.216   7.815   2.453 -0.5158  0.1489 -0.5194
 7223PW      WM26605   4.268   7.701   2.320 -0.1700  0.2060  0.0543
 7224PW       W26606   8.164   9.456  12.418 -0.0721 -0.2207 -0.1701
 7224PW      WP26607   8.245   9.567  12.444  0.0376 -0.2650 -0.3126
 7224PW      WM26608   8.288   9.435  12.480  0.1391  0.3487 -0.3716
 7225PW       W26609   0.588  11.461   0.619  0.0974 -0.2341  0.3352
 7225PW      WP26610   0.458  11.488   0.664 -0.2539 -0.1456 -0.6123
 7225PW      WM26611   0.662  11.452   0.500 -0.2374  0.1278  0.0847
 7226PW       W26612   2.174  10.624   8.930 -0.1596 -0.0448 -0.1617
 7226PW      WP26613   2.311  10.607   8.905 -0.2029 -0.1379 -0.3369
 7226PW      WM26614   2.135  10.492   8.954 -0.0952 -0.0087  0.1685
 7227PW       W26615   7.579  10.610  11.595  0.0405 -0.1463 -0.0399
 7227PW      WP26616   7.528  10.486  11.557  0.3659 -0.3251  0.0790
 7227PW      WM26617   7.480  10.662  11.679  0.6634  0.1707  0.5551
 7228PW       W26618   8.750   6.732   9.537 -0.2336  0.1284  0.0117
 7228PW      WP26619   8.841   6.835   9.514 -0.1037  0.0651  0.2272
 7228PW      WM26620   8.653   6.635   9.508 -0.2063 -0.0078  0.3499
 7229PW       W26621   9.335   8.951   2.278 -0.4677 -0.0867 -0.0256
 7229PW      WP26622   9.280   8.911   2.401  0.1281 -0.1561  0.2333
 7229PW      WM26623   9.395   9.065   2.334 -0.0337 -0.4573  0.2940
 7230PW       W26624   2.903   0.184   2.107 -0.0929 -0.0829 -0.0967
 7230PW      WP26625   2.811   0.204   2.004  0.3592  0.2388 -0.4635
 7230PW      WM26626   2.956   0.279   2.195 -0.2214 -0.3269  0.2571
 7231PW       W26627   9.886   1.390   4.017  0.1406 -0.1235 -0.3735
 7231PW      WP26628   9.821   1.512   4.032 -0.2789 -0.3770 -0.0067
 7231PW      WM26629   9.910   1.252   4.016  0.3170 -0.0964 -0.2120
 7232PW       W26630   8.754   4.617   2.574  0.0016 -0.4041  0.0827
 7232PW      WP26631   8.765   4.681   2.451  0.2993 -0.2434  0.1874
 7232PW      WM26632   8.628   4.567   2.609 -0.0413 -0.1910  0.2458
 7233PW       W26633   0.956   6.490   3.566  0.4799  0.1923  0.2236
 7233PW      WP26634   0.900   6.579   3.658  0.1330  0.2581 -0.0412
 7233PW      WM26635   0.890   6.374   3.522 -0.0734  0.4043  0.4493
 7234PW       W26636   9.316   4.750   9.634 -0.1161 -0.1272 -0.0403
 7234PW      WP26637   9.261   4.627   9.673 -0.2708 -0.0678 -0.0682
 7234PW      WM26638   9.176   4.756   9.639 -0.1227 -0.3554  0.1983
 7235PW       W26639   2.165   9.325   8.988  0.3108  0.0001 -0.0949
 7235PW      WP26640   2.184   9.245   8.874  0.3359  0.0706 -0.1402
 7235PW      WM26641   2.138   9.210   9.062  0.2823 -0.2247 -0.4405
 7236PW       W26642  11.190   3.488   9.663 -0.7265 -0.0823  0.4496
 7236PW      WP26643  11.276   3.513   9.771  0.1125 -0.4547 -0.0833
 7236PW      WM26644  11.262   3.560   9.567 -0.3816 -0.2105  0.6036
 7237PW       W26645   6.376   8.833   1.754 -0.1380  0.2312 -0.1783
 7237PW      WP26646   6.241   8.804   1.735 -0.1227  0.1468 -0.1632
 7237PW      WM26647   6.333   8.874   1.881  0.1782  0.5012 -0.1514
 7238PW       W26648   6.920   1.607   1.399  0.1802  0.0187 -0.0250
 7238PW      WP26649   7.010   1.683   1.474 -0.1293  0.2378  0.1393
 7238PW      WM26650   6.991   1.725   1.374  0.3149 -0.1503 -0.4956
 7239PW       W26651   0.202   7.330  10.888 -0.3319  0.3934 -0.2645
 7239PW      WP26652   0.188   7.198  10.845  0.4666  0.1200  0.2023
 7239PW      WM26653   0.342   7.321  10.883 -0.3513  0.1934 -0.7338
 7240PW       W26654   3.268   5.546  -0.019  0.0113  0.0417 -0.3376
 7240PW      WP26655   3.159   5.566   0.067  0.0571 -0.4652 -0.1431
 7240PW      WM26656   3.306   5.679  -0.038 -0.3741  0.0889 -0.9001
 7241PW       W26657   2.872   7.169  11.868 -0.3506 -0.1359 -0.0566
 7241PW      WP26658   2.819   7.236  11.980  0.1408 -0.3478  0.3233
 7241PW      WM26659   2.758   7.220  11.804 -0.3120  0.0816  0.0439
 7242PW       W26660  10.078   2.911   8.458 -0.1610 -0.0931  0.0366
 7242PW      WP26661   9.996   3.023   8.478  0.1989  0.2050 -0.1041
 7242PW      WM26662  10.154   2.903   8.576 -0.1356  0.0772  0.0326
 7243PW       W26663   9.199  11.990  12.446 -0.3956 -0.0202  0.3008
 7243PW      WP26664   9.290  11.883  12.446 -0.0343  0.2750  0.0820
 7243PW      WM26665   9.277  12.097  12.492  0.3401 -0.2854 -0.2279
 7244PW       W26666   9.718   0.530   1.305  0.0387  0.0545 -0.0446
 7244PW      WP26667   9.623   0.608   1.373  0.4314  0.2410  0.3157
 7244PW      WM26668   9.711   0.669   1.312 -0.4280  0.0681 -0.4710
 7245PW       W26669   3.014   8.837  10.005  0.3123  0.2066 -0.0952
 7245PW      WP26670   3.027   8.858  10.143 -0.4013 -0.2984  0.0806
 7245PW      WM26671   2.981   8.972   9.996  0.3860  0.2268 -0.0689
 7246PW       W26672   0.045   3.038   3.817  0.0429 -0.1575  0.2782
 7246PW      WP26673   0.172   3.095   3.796 -0.1352  0.1298 -0.0614
 7246PW      WM26674   0.030   2.949   3.710  0.0166  0.1478  0.0222
 7247PW       W26675   9.478   9.565   5.080  0.1092  0.2840  0.6606
 7247PW      WP26676   9.615   9.535   5.085  0.1889  0.4100 -0.0982
 7247PW      WM26677   9.470   9.701   5.049 -0.6360  0.1688  0.2092
 7248PW       W26678  11.085   4.721  13.022 -0.1604  0.1538  0.2185
 7248PW      WP26679  11.038   4.632  12.924 -0.1260  0.3044  0.0631
 7248PW      WM26680  11.130   4.740  13.153  0.5565  0.2577 -0.0165
 7249PW       W26681  12.006   5.123  12.971 -0.1925  0.2404  0.4159
 7249PW      WP26682  12.060   4.994  12.957 -0.2324  0.2739 -0.1611
 7249PW      WM26683  12.000   5.191  12.849 -0.2697 -0.6565 -0.1287
 7250PW       W26684   0.787  10.723  11.668  0.0399 -0.3259  0.3743
 7250PW      WP26685   0.883  10.820  11.638  0.0663 -0.3925  0.2405
 7250PW      WM26686   0.681  10.793  11.727  0.3002  0.1841  0.2679
 7251PW       W26687   0.028   3.049  13.099 -0.0885  0.3121 -0.0414
 7251PW      WP26688  -0.021   3.148  13.184  0.2300  0.6492 -0.2368
 7251PW      WM26689   0.162   3.088  13.091  0.1584 -0.2605  0.6971
 7252PW       W26690   7.385  12.116   5.161  0.0483  0.3745 -0.0880
 7252PW      WP26691   7.434  12.212   5.250  0.0889  0.0312  0.2712
 7252PW      WM26692   7.466  12.021   5.097 -0.3929 -0.1963  0.1600
 7253PW       W26693   3.192   2.507  11.939  0.1779 -0.3055 -0.1003
 7253PW      WP26694   3.209   2.473  12.073 -0.7012 -0.1576  0.0797
 7253PW      WM26695   3.302   2.516  11.853  0.2979 -0.1090  0.0706
 7254PW       W26696   4.427   5.266   3.376 -0.1761  0.4936 -0.2315
 7254PW      WP26697   4.527   5.221   3.288  0.1322 -0.2608  0.4379
 7254PW      WM26698   4.292   5.299   3.379 -0.3158 -0.0312 -0.1934
 7255PW       W26699   7.252   1.769   3.200  0.6029  0.1959  0.1421
 7255PW      WP26700   7.224   1.660   3.283  0.2986  0.3115  0.1951
 7255PW      WM26701   7.331   1.654   3.182 -0.4711 -0.6302  0.1826
 7256PW       W26702   0.789   1.808   2.177  0.4342  0.0282  0.1189
 7256PW      WP26703   0.904   1.742   2.134  0.1659 -0.5544  0.2550
 7256PW      WM26704   0.870   1.915   2.136  0.0040  0.3706  0.1236
 7257PW       W26705   1.261  11.550   1.537  0.3510 -0.1172 -0.0771
 7257PW      WP26706   1.174  11.456   1.593  0.0496  0.0115 -0.3115
 7257PW      WM26707   1.260  11.594   1.404  0.1892 -0.2148 -0.1094
 7258PW       W26708   8.502   5.344   0.527 -0.0585  0.1191 -0.0625
 7258PW      WP26709   8.508   5.478   0.485  0.2568  0.2085  0.2463
 7258PW      WM26710   8.480   5.309   0.393  0.3288  0.1504 -0.1402
 7259PW       W26711   1.030  10.669   9.617 -0.2511 -0.2388  0.2577
 7259PW      WP26712   0.979  10.540   9.631 -0.1102 -0.3333 -0.0616
 7259PW      WM26713   0.953  10.786   9.630  0.1895  0.0676  0.2117
 7260PW       W26714   6.674   8.354  11.093 -0.1583 -0.0314  0.0826
 7260PW      WP26715   6.536   8.342  11.111 -0.1458 -0.0794  0.1488
 7260PW      WM26716   6.610   8.421  10.988  0.2293  0.5498  0.1920
 7261PW       W26717  10.168   7.533   2.082 -0.1975 -0.1283 -0.0086
 7261PW      WP26718  10.260   7.428   2.092  0.0346  0.0634 -0.0671
 7261PW      WM26719  10.028   7.526   2.078 -0.2217  0.3057 -0.2800
 7262PW       W26720   9.298  10.318   9.479 -0.0469 -0.0902 -0.0078
 7262PW      WP26721   9.256  10.187   9.500  0.4986 -0.3384 -0.3642
 7262PW      WM26722   9.180  10.383   9.518 -0.2626 -0.2298 -0.3967
 7263PW       W26723   0.191   1.378   8.777 -0.0170  0.0452 -0.2673
 7263PW      WP26724   0.182   1.254   8.714 -0.4942 -0.0338 -0.0686
 7263PW      WM26725   0.189   1.512   8.735 -0.0516  0.1303 -0.0034
 7264PW       W26726   3.279   3.923   4.834  0.1200 -0.5823  0.4592
 7264PW      WP26727   3.409   3.883   4.801  0.3381  0.1760  0.3046
 7264PW      WM26728   3.177   3.893   4.924 -0.2276 -0.1819  0.2208
 7265PW       W26729   1.722   3.246   4.382 -0.2479  0.1337 -0.2445
 7265PW      WP26730   1.619   3.334   4.346 -0.1798  0.4180  0.2045
 7265PW      WM26731   1.708   3.108   4.398 -0.2035  0.1626  0.0932
 7266PW       W26732   2.804   0.128   4.525  0.1226 -0.0927  0.2226
 7266PW      WP26733   2.676   0.165   4.569  0.1006 -0.2266  0.2734
 7266PW      WM26734   2.848   0.260   4.516 -0.0362 -0.0570 -0.1231
 7267PW       W26735   2.669   3.022   4.949 -0.0693 -0.2921 -0.1938
 7267PW      WP26736   2.765   3.122   4.963  0.1469 -0.5150 -0.0443
 7267PW      WM26737   2.602   3.106   4.859  0.3900  0.3648  0.0464
 7268PW       W26738   6.925   1.843   1.857 -0.0619 -0.0348 -0.1113
 7268PW      WP26739   7.041   1.770   1.888 -0.2237 -0.0451  0.5429
 7268PW      WM26740   6.988   1.791   1.743  0.0437  0.0535 -0.0944
 7269PW       W26741   5.624   5.743   0.251  0.3691  0.4962  0.0265
 7269PW      WP26742   5.521   5.834   0.226  0.0894  0.1275 -0.2183
 7269PW      WM26743   5.640   5.786   0.119  0.1290  0.0536 -0.1574
 7270PW       W26744   1.482  10.450  11.341  0.3864 -0.3289 -0.2669
 7270PW      WP26745   1.433  10.326  11.384 -0.3336  0.0720  0.1760
 7270PW      WM26746   1.616  10.486  11.363  0.2380  0.1109 -0.0269
 7271PW       W26747   6.259   8.729   0.425 -0.4977 -0.0577 -0.3998
 7271PW      WP26748   6.289   8.598   0.386 -0.0798 -0.1834  0.2518
 7271PW      WM26749   6.238   8.865   0.450 -0.1699 -0.0224 -0.2802
 7272PW       W26750   8.173   2.402   9.559  0.0855  0.2962 -0.1408
 7272PW      WP26751   8.276   2.458   9.636  0.2888 -0.2346 -0.0057
 7272PW      WM26752   8.045   2.371   9.512  0.1062  0.2521 -0.1691
 7273PW       W26753   1.170  10.233   1.957 -0.2965  0.5709  0.3753
 7273PW      WP26754   1.292  10.165   1.952 -0.3854  0.4237 -0.5570
 7273PW      WM26755   1.095  10.209   1.842  0.3548  0.0262  0.0349
 7274PW       W26756   7.386   1.835   1.568  0.4611 -0.1049  0.0172
 7274PW      WP26757   7.443   1.954   1.523 -0.2718  0.2353 -0.0796
 7274PW      WM26758   7.374   1.747   1.677 -0.0663 -0.5654 -0.3864
 7275PW       W26759   6.990   3.837   2.110  0.0332 -0.0822  0.0542
 7275PW      WP26760   7.036   3.943   2.031  0.1487 -0.2113 -0.0537
 7275PW      WM26761   6.889   3.886   2.194  0.1329 -0.1409  0.2109
 7276PW       W26762   3.624   2.991   4.894  0.0341 -0.4098  0.2906
 7276PW      WP26763   3.544   2.887   4.941  0.0975 -0.5626  0.0727
 7276PW      WM26764   3.725   2.931   4.817 -0.1475 -0.4205  0.0566
 7277PW       W26765   1.988   4.244   0.789  0.1363 -0.0864 -0.1880
 7277PW      WP26766   2.023   4.362   0.723  0.3470 -0.2138 -0.3114
 7277PW      WM26767   2.094   4.246   0.881 -0.2584  0.6257  0.2932
 7278PW       W26768   6.884  10.691   1.572  0.1834 -0.2191 -0.1546
 7278PW      WP26769   6.951  10.568   1.568  0.4146 -0.0962 -0.1564
 7278PW      WM26770   6.974  10.727   1.673  0.3132 -0.3111 -0.2350
 7279PW       W26771  11.938   4.881   2.154 -0.2306 -0.0628  0.2530
 7279PW      WP26772  11.936   5.020   2.172 -0.3402 -0.0206 -0.0566
 7279PW      WM26773  11.822   4.845   2.085  0.2742 -0.1853 -0.6081
 7280PW       W26774   9.212   6.442   5.364 -0.5744  0.0098 -0.0202
 7280PW      WP26775   9.311   6.343   5.355 -0.2607  0.2733  0.3324
 7280PW      WM26776   9.159   6.479   5.240 -0.0451  0.1896 -0.2063
 7281PW       W26777   4.758   1.133  12.170  0.1823  0.0397  0.0662
 7281PW      WP26778   4.805   1.198  12.056 -0.6622  0.2430 -0.1992
 7281PW      WM26779   4.650   1.094  12.250 -0.3905 -0.1076 -0.7235
 7282PW       W26780   6.289   7.202   2.898 -0.3932 -0.3927  0.2951
 7282PW      WP26781   6.288   7.277   3.016  0.1163 -0.0438  0.0949
 7282PW      WM26782   6.370   7.111   2.967  0.3283 -0.3153 -0.3787
 7283PW       W26783   0.049   0.445   8.944 -0.2915 -0.0278  0.4504
 7283PW      WP26784   0.039   0.503   8.817  0.1188 -0.4681  0.2007
 7283PW      WM26785   0.056   0.554   9.032 -0.2740  0.3090  0.0443
 7284PW       W26786   2.222   2.091  10.891  0.2235  0.0353 -0.1458
 7284PW      WP26787   2.238   2.067  11.028 -0.3504 -0.3041 -0.1233
 7284PW      WM26788   2.200   2.226  10.923  0.6608  0.0433  0.1836
 7285PW       W26789   7.254   3.853   4.900 -0.0919 -0.1205  0.1215
 7285PW      WP26790   7.301   3.755   4.988  0.3932  0.0434  0.0630
 7285PW      WM26791   7.329   3.918   4.802 -0.3309  0.0657  0.0573
 7286PW       W26792   7.915   3.262   3.225 -0.0642 -0.1629 -0.0555
 7286PW      WP26793   7.884   3.220   3.355 -0.1405  0.4266  0.1320
 7286PW      WM26794   8.047   3.292   3.261 -0.0492  0.1362 -0.3323
 7287PW       W26795   7.322   5.951   2.815  0.1879  0.1620 -0.1920
 7287PW      WP26796   7.430   5.996   2.892  0.0547  0.6938 -0.2952
 7287PW      WM26797   7.381   5.856   2.731 -0.2494 -0.4679  0.1703
 7288PW       W26798   0.053   0.681   5.043  0.0660 -0.3997  0.0338
 7288PW      WP26799   0.120   0.762   5.135 -0.0029 -0.2693 -0.0296
 7288PW      WM26800  -0.077   0.732   5.031 -0.0800 -0.7180  0.2038
 7289PW       W26801   4.353   5.783   5.237 -0.2710  0.0864 -0.3195
 7289PW      WP26802   4.360   5.643   5.229  0.5540  0.0558  0.2655
 7289PW      WM26803   4.263   5.890   5.248 -0.2669  0.1283 -0.6323
 7290PW       W26804   8.082   0.556   3.066  0.0166 -0.1733 -0.0992
 7290PW      WP26805   7.954   0.577   3.117  0.1220  0.0888  0.0658
 7290PW      WM26806   8.022   0.513   2.947  0.0804 -0.2843 -0.0924
 7291PW       W26807   3.310   9.326   0.497  0.3086 -0.1011  0.2242
 7291PW      WP26808   3.209   9.322   0.594  0.0026 -0.8525 -0.0858
 7291PW      WM26809   3.407   9.261   0.573  0.3669 -0.0456  0.1980
 7292PW       W26810   6.682   6.464   3.551 -0.1618 -0.0412 -0.4422
 7292PW      WP26811   6.775   6.376   3.495 -0.0004 -0.1401 -0.0381
 7292PW      WM26812   6.770   6.545   3.477  0.2920 -0.3565 -0.2735
 7293PW       W26813   2.860   2.374   0.090 -0.3440  0.1680  0.7311
 7293PW      WP26814   2.794   2.491   0.050  0.3848  0.2525 -0.4758
 7293PW      WM26815   2.890   2.384   0.227  0.3110 -0.5276  0.6758
 7294PW       W26816   6.997   4.722  10.109 -0.3727  0.0176 -0.1890
 7294PW      WP26817   7.070   4.614  10.057  0.0070  0.2020 -0.0580
 7294PW      WM26818   6.858   4.730  10.127 -0.3528  0.4073 -0.1759
 7295PW       W26819   7.721   2.186   4.949  0.0480 -0.1029 -0.1822
 7295PW      WP26820   7.650   2.277   5.030  0.2099 -0.0683 -0.0750
 7295PW      WM26821   7.797   2.266   4.863 -0.3833  0.1777 -0.3234
 7296PW       W26822   2.096   1.882   5.310 -0.4922  0.0141  0.0687
 7296PW      WP26823   2.016   1.874   5.425 -0.3170 -0.1578  0.1814
 7296PW      WM26824   2.081   1.864   5.172 -0.1992  0.3456 -0.0156
 7297PW       W26825   4.529   9.535  10.102  0.0654  0.2665  0.1772
 7297PW      WP26826   4.644   9.596  10.153  0.0167  0.6728 -0.1721
 7297PW      WM26827   4.414   9.606  10.067  0.1306  0.2251 -0.1326
 7298PW       W26828   4.947   0.424  13.334 -0.0736  0.2985 -0.0612
 7298PW      WP26829   4.892   0.549  13.305 -0.2873  0.2602  0.1674
 7298PW      WM26830   4.847   0.365  13.412  0.2325 -0.0688  0.0678
 7299PW       W26831   9.414   9.641  11.166 -0.2554 -0.1891 -0.0197
 7299PW      WP26832   9.430   9.516  11.227 -0.2635 -0.1899 -0.0195
 7299PW      WM26833   9.330   9.604  11.272 -0.3735 -0.0043 -0.0469
 7300PW       W26834   4.913   5.886  12.691 -0.2670  0.0794 -0.4085
 7300PW      WP26835   4.836   5.973  12.770 -0.2854 -0.0425 -0.2885
 7300PW      WM26836   4.881   5.778  12.775  0.5315  0.3683  0.3376
 7301PW       W26837   1.092  11.414   2.090  0.0100 -0.0433  0.3760
 7301PW      WP26838   0.981  11.370   2.164  0.0634 -0.2397  0.3429
 7301PW      WM26839   1.047  11.547   2.087 -0.2244 -0.1231  0.1772
 7302PW       W26840  11.238   4.380   0.885  0.3351 -0.0001  0.2271
 7302PW      WP26841  11.276   4.291   0.986 -0.1807  0.0051  0.4444
 7302PW      WM26842  11.221   4.436   0.758  0.7216 -0.5841 -0.1004
 7303PW       W26843   3.218   8.025  -0.011 -0.0352  0.2415 -0.0995
 7303PW      WP26844   3.088   8.058   0.032 -0.0037  0.1923  0.0362
 7303PW      WM26845   3.353   7.990  -0.013 -0.2150 -0.6365  0.3328
 7304PW       W26846   9.121   8.082   9.544  0.0276  0.3114 -0.3054
 7304PW      WP26847   9.216   8.170   9.491  0.1620  0.0855 -0.4533
 7304PW      WM26848   9.029   7.976   9.540 -0.0751  0.3661  0.2740
 7305PW       W26849   8.529   8.552   8.057  0.1304 -0.1372  0.4782
 7305PW      WP26850   8.637   8.603   8.130  0.1497  0.1755  0.2425
 7305PW      WM26851   8.418   8.573   8.139  0.0210  0.2188  0.2530
 7306PW       W26852   6.360   9.326   2.086  0.0508  0.0321  0.0139
 7306PW      WP26853   6.331   9.294   1.953  0.2696  0.1426 -0.0634
 7306PW      WM26854   6.299   9.252   2.187 -0.0747  0.4950  0.2919
 7307PW       W26855   7.733   7.206  11.145  0.1343  0.1972  0.2499
 7307PW      WP26856   7.843   7.254  11.073  0.1523  0.5074  0.4767
 7307PW      WM26857   7.616   7.147  11.194  0.3844 -0.2704  0.3048
 7308PW       W26858   3.617   7.172   0.859  0.0383 -0.1838  0.1287
 7308PW      WP26859   3.486   7.218   0.840 -0.0430 -0.5910 -0.4464
 7308PW      WM26860   3.742   7.218   0.900  0.0691  0.5211 -0.6204
 7309PW       W26861   0.383  10.067   9.301 -0.0265 -0.3951  0.3662
 7309PW      WP26862   0.401  10.202   9.334 -0.3303 -0.1748 -0.2924
 7309PW      WM26863   0.354   9.984   9.410  0.1899 -0.8246  0.1096
 7310PW       W26864   9.697   0.349   4.269  0.3390  0.4031  0.4650
 7310PW      WP26865   9.685   0.486   4.243 -0.0476  0.2533 -0.3067
 7310PW      WM26866   9.561   0.340   4.300  0.2537  0.3427  0.0958
 7311PW       W26867  10.098   1.412   9.683 -0.2035  0.0054 -0.6501
 7311PW      WP26868  10.229   1.456   9.699 -0.4002  0.3478  0.3491
 7311PW      WM26869  10.171   1.528   9.709 -0.0117 -0.2464  0.0236
 7312PW       W26870   7.481   2.307  10.737  0.0087 -0.3373  0.5464
 7312PW      WP26871   7.361   2.277  10.671  0.0713  0.4335  0.0140
 7312PW      WM26872   7.591   2.381  10.693 -0.5074  0.1364 -0.0516
 7313PW       W26873   7.273   9.344   3.931  0.0867 -0.3030 -0.4088
 7313PW      WP26874   7.189   9.263   4.008 -0.0082  0.0215 -0.1572
 7313PW      WM26875   7.372   9.281   3.855  0.3921  0.0282 -0.2994
 7314PW       W26876   7.270   5.844  10.117  0.3081 -0.3549 -0.2881
 7314PW      WP26877   7.187   5.802  10.222  0.1801  0.1745 -0.1658
 7314PW      WM26878   7.370   5.938  10.144  0.2853 -0.5483  0.6400
 7315PW       W26879  10.893  11.946   3.904 -0.4366  0.3158 -0.1237
 7315PW      WP26880  10.859  11.923   4.037  0.1238 -0.1099 -0.0383
 7315PW      WM26881  10.864  12.006   3.780  0.2619  0.3207 -0.3042
 7316PW       W26882   7.947  10.378   1.047  0.2756  0.2631  0.2766
 7316PW      WP26883   7.938  10.384   0.907  0.1305 -0.5144  0.2303
 7316PW      WM26884   7.974  10.268   1.129 -0.0778  0.1144  0.2046
 7317PW       W26885   5.410   8.712   1.589 -0.1035  0.0484  0.1420
 7317PW      WP26886   5.417   8.662   1.458  0.0912 -0.4832  0.3395
 7317PW      WM26887   5.401   8.612   1.687 -0.0909 -0.1017 -0.0074
 7318PW       W26888  10.996   0.901   4.155  0.1648  0.0664  0.0662
 7318PW      WP26889  10.901   0.924   4.256  0.2206  0.0714  0.1177
 7318PW      WM26890  10.930   0.841   4.047  0.0215  0.2269  0.0618
 7319PW       W26891   9.072   9.476   4.628  0.2797 -0.0370  0.2730
 7319PW      WP26892   9.054   9.614   4.641 -0.1100 -0.0478 -0.0343
 7319PW      WM26893   9.154   9.373   4.676  0.5718 -0.2034 -0.4953
 7320PW       W26894   9.313   1.847   2.606  0.1915 -0.2295 -0.2305
 7320PW      WP26895   9.441   1.803   2.641  0.2786  0.0116 -0.2355
 7320PW      WM26896   9.205   1.758   2.619  0.3018 -0.2855  0.5542
 7321PW       W26897   2.452   9.551   3.379 -0.5902 -0.1938 -0.1404
 7321PW      WP26898   2.446   9.464   3.269  0.2385 -0.1610 -0.2423
 7321PW      WM26899   2.465   9.493   3.505  0.4913  0.0483 -0.0927
 7322PW       W26900  11.576   1.320   4.188  0.0402 -0.4670 -0.0461
 7322PW      WP26901  11.636   1.242   4.088 -0.2001 -0.0474 -0.5403
 7322PW      WM26902  11.610   1.401   4.297 -0.8223  0.1766 -0.2030
 7323PW       W26903   5.736   4.435   4.972 -0.2656 -0.0576 -0.1074
 7323PW      WP26904   5.656   4.546   4.947 -0.3228 -0.1764 -0.4876
 7323PW      WM26905   5.837   4.469   4.881  0.1776 -0.0525  0.3605
 7324PW       W26906   5.239   6.072   0.355  0.2922  0.3897 -0.0266
 7324PW      WP26907   5.152   6.163   0.416 -0.0443  0.2684 -0.3068
 7324PW      WM26908   5.350   6.033   0.278  0.2719  0.3363 -0.0295
 7325PW       W26909   5.921  10.698  11.082  0.7299  0.2217 -0.0688
 7325PW      WP26910   5.818  10.710  10.988  0.0058 -1.1498  0.4176
 7325PW      WM26911   5.954  10.563  11.091  0.1361  0.0742  0.1304
 7326PW       W26912   1.790   2.937  12.176 -0.0493 -0.7930  0.2474
 7326PW      WP26913   1.677   2.918  12.096 -0.1764 -0.1856  0.2637
 7326PW      WM26914   1.789   2.926  12.316 -0.1769 -0.5071  0.2725
 7327PW       W26915   0.868   5.680   0.814  0.2645  0.2098 -0.2301
 7327PW      WP26916   0.789   5.784   0.866 -0.1710 -0.0217 -0.4036
 7327PW      WM26917   0.882   5.671   0.675  0.5107 -0.2241 -0.1865
 7328PW       W26918   1.578   6.519  12.930 -0.1994 -0.2048 -0.2360
 7328PW      WP26919   1.633   6.644  12.900  0.3324 -0.3065  0.2300
 7328PW      WM26920   1.463   6.467  12.988 -0.2918  0.0889 -0.1478
 7329PW       W26921   8.748   2.260   2.005  0.0579  0.4653  0.0943
 7329PW      WP26922   8.823   2.274   2.122 -0.0973  0.0737  0.2524
 7329PW      WM26923   8.881   2.290   2.037  0.3405 -0.3392 -0.1733
 7330PW       W26924   5.311  10.775  11.298 -0.1259  0.1807 -0.0285
 7330PW      WP26925   5.361  10.730  11.175  0.6809  0.5125  0.1418
 7330PW      WM26926   5.288  10.743  11.432 -0.3841  0.4711  0.0030
 7331PW       W26927   1.636  10.644   2.795  0.1845  0.2663  0.1452
 7331PW      WP26928   1.555  10.589   2.895  0.1017  0.3989  0.1511
 7331PW      WM26929   1.736  10.741   2.781  0.0808  0.3173 -0.3353
 7332PW       W26930   1.032   5.793   1.621  0.1142  0.2699  0.1959
 7332PW      WP26931   1.046   5.805   1.482 -0.0427 -0.3906  0.1031
 7332PW      WM26932   1.061   5.671   1.684 -0.2264  0.0928  0.0254
 7333PW       W26933   9.633   4.689   2.034  0.2640 -0.3138 -0.2706
 7333PW      WP26934   9.718   4.595   2.093  0.2528 -0.2052 -0.0746
 7333PW      WM26935   9.524   4.600   2.031  0.4052 -0.4953 -0.1675
 7334PW       W26936   0.542   9.264  12.155 -0.0184 -0.2336  0.3748
 7334PW      WP26937   0.468   9.301  12.268  0.2005 -0.3156  0.5490
 7334PW      WM26938   0.503   9.389  12.206 -0.3436 -0.2289  0.1326
 7335PW       W26939   5.620   6.091   0.723 -0.2691 -0.3407 -0.1121
 7335PW      WP26940   5.717   6.035   0.807  0.2757  0.3089 -0.2652
 7335PW      WM26941   5.498   6.145   0.766  0.0715 -0.0088  0.5061
 7336PW       W26942   0.154   2.587  10.720  0.1886 -0.2600 -0.0445
 7336PW      WP26943   0.255   2.674  10.761 -0.2342  0.3261 -0.1718
 7336PW      WM26944   0.028   2.535  10.754  0.1412 -0.0148  0.1725
 7337PW       W26945   6.429   9.913  11.973 -0.2308  0.3147  0.3582
 7337PW      WP26946   6.515   9.920  11.863  0.2696  0.4610  0.7385
 7337PW      WM26947   6.467   9.834  12.083 -0.5533 -0.4392 -0.0360
 7338PW       W26948   1.761   3.773   1.442 -0.1389 -0.1115 -0.1166
 7338PW      WP26949   1.817   3.842   1.550 -0.3548 -0.0450 -0.0426
 7338PW      WM26950   1.705   3.898   1.414  0.3715  0.0642 -0.4206
 7339PW       W26951   1.112  10.769   3.546  0.0929 -0.1594  0.2425
 7339PW      WP26952   1.119  10.818   3.415 -0.4622  0.0410  0.2739
 7339PW      WM26953   1.133  10.876   3.633  0.2538 -0.1628  0.2096
 7340PW       W26954  10.128   2.835  10.230 -0.1224  0.5378  0.2334
 7340PW      WP26955  10.176   2.908  10.120  0.0055  0.0261 -0.0680
 7340PW      WM26956  10.075   2.831  10.360  0.5524 -0.3216  0.5299
 7341PW       W26957   1.407   6.928  12.174  0.4561  0.1775 -0.3163
 7341PW      WP26958   1.435   6.799  12.126  0.2904  0.0616 -0.1118
 7341PW      WM26959   1.468   7.038  12.234 -0.2131  0.1841  0.4275
 7342PW       W26960  11.308   2.638  11.283  0.3125 -0.0606  0.1838
 7342PW      WP26961  11.285   2.707  11.164 -0.3633  0.2588  0.4719
 7342PW      WM26962  11.213   2.549  11.233  0.1624  0.1112  0.1590
 7343PW       W26963   6.446   4.537   9.319 -0.4774  0.1047 -0.0203
 7343PW      WP26964   6.585   4.536   9.303 -0.4074  0.6816  0.3811
 7343PW      WM26965   6.351   4.531   9.422 -0.0637  0.0460  0.3741
 7344PW       W26966   4.312   8.293  10.106 -0.0119 -0.1581 -0.3472
 7344PW      WP26967   4.244   8.398  10.042 -0.3153 -0.0952  0.0572
 7344PW      WM26968   4.442   8.340  10.086  0.1682 -0.3427  0.2771
 7345PW       W26969   2.498   4.951  11.081  0.2429 -0.0038 -0.1747
 7345PW      WP26970   2.515   5.058  11.169 -0.1910 -0.1710  0.1255
 7345PW      WM26971   2.361   4.973  11.101  0.1393 -0.8118  0.2029
 7346PW       W26972   1.015   3.565   1.741  0.1127 -0.2528 -0.0381
 7346PW      WP26973   0.884   3.571   1.690 -0.0263 -0.2442  0.3050
 7346PW      WM26974   1.032   3.445   1.811  0.0670 -0.3271 -0.1537
 7347PW       W26975   0.773   5.676  10.390  0.1704  0.1180  0.2123
 7347PW      WP26976   0.864   5.637  10.291  0.0279  0.4438 -0.0554
 7347PW      WM26977   0.907   5.685  10.431  0.3743  0.0693 -0.3875
 7348PW       W26978   3.348   2.178   9.297 -0.1882 -0.0053  0.1383
 7348PW      WP26979   3.236   2.097   9.316 -0.0125 -0.3756 -0.2985
 7348PW      WM26980   3.320   2.261   9.406 -0.3220  0.1857 -0.0389
 7349PW       W26981   2.954   0.515   1.645  0.0274  0.1996  0.0090
 7349PW      WP26982   2.981   0.632   1.717 -0.2648  0.6122 -0.5168
 7349PW      WM26983   2.817   0.486   1.654  0.0779  0.0626  0.4408
 7350PW       W26984   0.372   6.249   1.873 -0.0456  0.4892  0.0139
 7350PW      WP26985   0.407   6.240   2.008 -0.2208 -0.1587  0.0296
 7350PW      WM26986   0.364   6.245   1.733 -0.1562 -0.0806  0.0236
 7351PW       W26987   2.669   7.386   3.501 -0.1367 -0.3411  0.2427
 7351PW      WP26988   2.622   7.371   3.632 -0.1915  0.3952  0.3269
 7351PW      WM26989   2.573   7.351   3.406  0.0676  0.2677 -0.2205
 7352PW       W26990   3.939   4.118  10.620 -0.1923  0.0790  0.1556
 7352PW      WP26991   3.832   4.152  10.536 -0.1603  0.0905  0.1197
 7352PW      WM26992   3.935   4.223  10.712  0.0036  0.1489  0.0855
 7353PW       W26993   3.472   0.342   1.934  0.0837 -0.1183 -0.3289
 7353PW      WP26994   3.566   0.292   1.843  0.0112 -0.3552 -0.2772
 7353PW      WM26995   3.427   0.467   1.890 -0.1062 -0.0850 -0.0496
 7354PW       W26996  -0.026   0.371   3.292  0.4324 -0.0167  0.1969
 7354PW      WP26997   0.104   0.418   3.271  0.2841  0.3188 -0.0166
 7354PW      WM26998  -0.071   0.281   3.194 -0.0157  0.2920  0.1082
 7355PW       W26999   3.419   8.610   3.081 -0.0245  0.0577 -0.0364
 7355PW      WP27000   3.500   8.516   3.146  0.0890 -0.2059 -0.5311
 7355PW      WM27001   3.303   8.562   3.020 -0.0642 -0.2755  0.2783
 7356PW       W27002   2.682  10.382   0.833 -0.1255 -0.0344  0.0170
 7356PW      WP27003   2.585  10.480   0.858  0.1026  0.1829  0.0802
 7356PW      WM27004   2.600  10.270   0.818 -0.4349  0.1592  0.2111
 7357PW       W27005   4.223   7.457  11.228  0.1101 -0.3765  0.5646
 7357PW      WP27006   4.185   7.363  11.324 -0.1400 -0.4967  0.3534
 7357PW      WM27007   4.181   7.562  11.310 -0.3898  0.2381 -0.3816
 7358PW       W27008  11.344   4.729   0.576  0.0767 -0.0820 -0.1023
 7358PW      WP27009  11.220   4.666   0.568 -0.1002  0.2496 -0.0571
 7358PW      WM27010  11.331   4.867   0.598  0.1396  0.0020 -0.5298
 7359PW       W27011   6.866  11.779   2.411 -0.4165  0.9273  0.0586
 7359PW      WP27012   6.786  11.814   2.520 -0.3123  0.1889  0.4038
 7359PW      WM27013   6.831  11.728   2.286  0.0793 -0.4684  0.3978
 7360PW       W27014  10.747   6.595   9.930  0.3642  0.1645 -0.1607
 7360PW      WP27015  10.725   6.720   9.990  0.2539 -0.0564  0.2834
 7360PW      WM27016  10.735   6.622   9.794  0.2833  0.0142 -0.1841
 7361PW       W27017  11.473   7.220   9.700 -0.2054 -0.3928  0.2761
 7361PW      WP27018  11.599   7.179   9.656 -0.2896 -0.3101 -0.0560
 7361PW      WM27019  11.395   7.325   9.751 -0.3564 -0.0468 -0.5912
 7362PW       W27020  11.052  11.369  11.506  0.1031 -0.3294 -0.1767
 7362PW      WP27021  11.179  11.418  11.538  0.0862  0.0470 -0.6277
 7362PW      WM27022  11.005  11.475  11.585  0.5277 -0.0495 -0.2813
 7363PW       W27023   3.075  10.749   4.079 -0.0209  0.0021  0.5126
 7363PW      WP27024   3.166  10.693   3.988 -0.4475 -0.0204  0.0780
 7363PW      WM27025   2.991  10.854   4.039  0.0558 -0.1008  0.0483
 7364PW       W27026   8.455   2.661  12.689  0.0247 -0.7167  0.2854
 7364PW      WP27027   8.510   2.688  12.814  0.4097 -0.1719  0.0190
 7364PW      WM27028   8.456   2.582  12.573  0.1597 -0.1097 -0.1588
 7365PW       W27029   4.204   2.151   3.379 -0.2149  0.1512 -0.1174
 7365PW      WP27030   4.284   2.036   3.388  0.0904  0.3438 -0.2677
 7365PW      WM27031   4.307   2.236   3.336  0.2822 -0.1995  0.3195
 7366PW       W27032   7.079   3.898   1.544  0.5303  0.3939 -0.0334
 7366PW      WP27033   6.981   3.831   1.470  0.4177  0.7979 -0.2705
 7366PW      WM27034   7.084   4.036   1.566  0.0030  0.4837 -0.3724
 7367PW       W27035  10.366  10.204  10.529  0.1454  0.2020  0.0622
 7367PW      WP27036  10.266  10.204  10.430  0.3784  0.2231 -0.1793
 7367PW      WM27037  10.480  10.224  10.607  0.3349  0.3077 -0.2345
 7368PW       W27038   0.771   4.013   3.551 -0.1300 -0.0730  0.4235
 7368PW      WP27039   0.878   4.100   3.529 -0.2299 -0.1325 -0.4929
 7368PW      WM27040   0.743   4.025   3.688  0.3396  0.5056  0.4877
 7369PW       W27041   9.562   2.154   5.662 -0.1032  0.5133 -0.1830
 7369PW      WP27042   9.482   2.074   5.580  0.1625  0.3045 -0.2430
 7369PW      WM27043   9.511   2.241   5.759 -0.2588 -0.0875  0.3032
 7370PW       W27044   0.981   6.131  10.523 -0.6397  0.1393  0.4105
 7370PW      WP27045   0.976   6.270  10.510  0.0505  0.1662  0.2381
 7370PW      WM27046   1.088   6.083  10.599 -0.3181 -0.1463 -0.1878
 7371PW       W27047  10.533   5.055   2.532  0.3752 -0.1017  0.2447
 7371PW      WP27048  10.459   4.985   2.435  0.4347 -0.0300  0.1467
 7371PW      WM27049  10.658   4.997   2.555  0.1145 -0.7276  0.1880
 7372PW       W27050  10.760   5.520  11.287 -0.4237  0.2273  0.3802
 7372PW      WP27051  10.867   5.541  11.375  0.3209 -0.4019 -0.2918
 7372PW      WM27052  10.707   5.391  11.300 -0.1915  0.0428 -0.2742
 7373PW       W27053   9.779   3.825  12.293  0.2824  0.3314  0.2523
 7373PW      WP27054   9.762   3.958  12.332 -0.5244  0.1645  0.5794
 7373PW      WM27055   9.886   3.772  12.220 -0.0456 -0.1617  0.1035
 7374PW       W27056   4.526   2.730   0.911 -0.4786  0.0940  0.3131
 7374PW      WP27057   4.646   2.796   0.940 -0.1573 -0.1512 -0.3452
 7374PW      WM27058   4.455   2.827   0.839  0.2981  0.1437 -0.4685
 7375PW       W27059   2.285   2.196   2.144 -0.1117  0.2153  0.3273
 7375PW      WP27060   2.219   2.072   2.147  0.1626  0.0415 -0.2041
 7375PW      WM27061   2.255   2.264   2.262  0.7584  0.1188  0.6386
 7376PW       W27062   7.405   9.272   2.554 -0.4948  0.2703 -0.3020
 7376PW      WP27063   7.507   9.368   2.561 -0.0685 -0.1876  0.4211
 7376PW      WM27064   7.350   9.216   2.670  0.1606 -0.1100 -0.1485
 7377PW       W27065   1.976   7.159  12.663 -0.4124  0.4315  0.1561
 7377PW      WP27066   1.954   7.240  12.551  0.3186 -0.2473 -0.5388
 7377PW      WM27067   1.856   7.121  12.602 -0.3876  0.5876  0.0058
 7378PW       W27068   8.003   2.864  13.252  0.3385  0.1300  0.1689
 7378PW      WP27069   8.078   2.879  13.135  0.1354  0.1374  0.0381
 7378PW      WM27070   7.964   2.935  13.367  0.2802  0.1368  0.1449
 7379PW       W27071  11.943   2.613   3.914 -0.2530  0.2553  0.0052
 7379PW      WP27072  11.927   2.699   4.023 -0.1894  0.2265  0.0371
 7379PW      WM27073  11.867   2.585   3.799  0.5258 -0.0587 -0.4729
 7380PW       W27074   5.025   1.434  10.663 -0.1461  0.3176  0.1183
 7380PW      WP27075   5.157   1.478  10.677 -0.1476  0.3581  0.0100
 7380PW      WM27076   4.966   1.370  10.774 -0.3384 -0.1969 -0.2612
 7381PW       W27077   3.057   2.002   2.822 -0.4389  0.0396 -0.1470
 7381PW      WP27078   3.016   2.132   2.788 -1.0275  0.0261  0.4061
 7381PW      WM27079   3.091   1.868   2.840 -0.1620  0.0934 -0.2533
 7382PW       W27080  10.082  11.387   4.609  0.8031 -0.3095 -0.2250
 7382PW      WP27081  10.012  11.349   4.495  0.2868  0.4483 -0.1983
 7382PW      WM27082  10.132  11.515   4.581 -0.0077  0.0681 -0.0852
 7383PW       W27083  11.877  10.285   0.694 -0.2931  0.4054 -0.1683
 7383PW      WP27084  11.918  10.390   0.612  0.1447  0.2236 -0.1987
 7383PW      WM27085  11.761  10.232   0.636 -0.1452 -0.1375 -0.0028
 7384PW       W27086  10.447   4.181   5.117  0.0699  0.4914 -0.0213
 7384PW      WP27087  10.514   4.175   4.994 -0.3016 -0.2715 -0.2132
 7384PW      WM27088  10.351   4.080   5.105 -0.1129  0.6951 -0.3849
 7385PW       W27089   0.314   5.263   3.463 -0.0532 -0.0864  0.1925
 7385PW      WP27090   0.319   5.402   3.454  0.0294 -0.1136 -0.2686
 7385PW      WM27091   0.182   5.278   3.422 -0.0896 -0.6263  0.0728
 7386PW       W27092   7.023   7.254   2.465 -0.1332 -0.1203  0.4816
 7386PW      WP27093   6.990   7.315   2.344 -0.1144  0.0668  0.5684
 7386PW      WM27094   6.969   7.368   2.525  0.2154  0.2620  0.1005
 7387PW       W27095   1.317   9.646   9.167 -0.5411  0.1314  0.1623
 7387PW      WP27096   1.276   9.769   9.114 -0.3282  0.3657  0.5214
 7387PW      WM27097   1.339   9.586   9.042  0.5553  0.3599  0.1952
 7388PW       W27098   6.583   4.659  12.357  0.0671 -0.3826  0.0853
 7388PW      WP27099   6.558   4.699  12.225 -0.0216  0.0341  0.2195
 7388PW      WM27100   6.541   4.609  12.481 -0.0637  0.1891  0.2867
 7389PW       W27101   3.696   1.084  10.227 -0.0277 -0.1815 -0.2718
 7389PW      WP27102   3.805   1.005  10.189  0.0834 -0.3695  0.3843
 7389PW      WM27103   3.757   1.179  10.309 -0.5251  0.1531 -0.2641
 7390PW       W27104   2.847  10.374   9.805 -0.2603 -0.2364 -0.1942
 7390PW      WP27105   2.825  10.469   9.705 -0.0828 -0.1031 -0.1074
 7390PW      WM27106   2.871  10.316   9.930 -0.4083  0.3806  0.1387
 7391PW       W27107   2.569   8.514   2.101  0.2103  0.2326  0.0202
 7391PW      WP27108   2.601   8.546   2.233  0.1733  0.1874  0.0403
 7391PW      WM27109   2.632   8.475   1.982  0.1598  0.0140  0.0624
 7392PW       W27110   7.654  10.477   0.348 -0.1304  0.3996 -0.5449
 7392PW      WP27111   7.599  10.533   0.465  0.1420  0.0611 -0.2433
 7392PW      WM27112   7.704  10.413   0.235 -0.2317 -0.2833 -0.2304
 7393PW       W27113   7.535   1.677   4.817  0.4254  0.0955  0.0556
 7393PW      WP27114   7.602   1.559   4.784 -0.3736 -0.4106  0.1016
 7393PW      WM27115   7.605   1.784   4.760  0.2435  0.2056  0.0324
 7394PW       W27116   2.955   0.187  11.394 -0.0501 -0.0764 -0.3476
 7394PW      WP27117   2.968   0.070  11.471  0.0177  0.0094 -0.2269
 7394PW      WM27118   2.967   0.308  11.325  0.4471  0.2762  0.2978
 7395PW       W27119   9.396  12.065   3.842  0.0773  0.4949  0.1599
 7395PW      WP27120   9.508  12.023   3.770 -0.2847  0.0206 -0.1574
 7395PW      WM27121   9.317  11.953   3.873  0.1732  0.4704  0.3230
 7396PW       W27122  11.480   1.179  12.134  0.1489 -0.1099 -0.2870
 7396PW      WP27123  11.462   1.302  12.198  0.1370 -0.2901  0.0655
 7396PW      WM27124  11.403   1.150  12.247  0.3098  0.0224 -0.1422
 7397PW       W27125   0.091   2.616   4.500  0.0080 -0.7161  0.2547
 7397PW      WP27126   0.028   2.737   4.529  0.1693 -0.3064 -0.8385
 7397PW      WM27127  -0.044   2.595   4.469 -0.2413  0.0744  0.6728
 7398PW       W27128   6.231  11.242   3.126  0.1308  0.1972 -0.0816
 7398PW      WP27129   6.358  11.222   3.182  0.0453 -0.5874 -0.1087
 7398PW      WM27130   6.336  11.194   3.046  0.3758  0.5244  0.0338
 7399PW       W27131   5.895   4.045  11.845 -0.0480  0.5551  0.0249
 7399PW      WP27132   5.810   4.032  11.956 -0.4219  0.1239 -0.2942
 7399PW      WM27133   5.771   4.106  11.824 -0.6383 -0.3453  0.5451
 7400PW       W27134   0.689   7.378  10.303 -0.4230  0.4753 -0.0356
 7400PW      WP27135   0.779   7.271  10.306 -0.5768  0.3430 -0.0257
 7400PW      WM27136   0.674   7.414  10.168 -0.0853 -0.0808 -0.2392
 7401PW       W27137   5.673   7.087  11.624  0.1904  0.0865  0.5452
 7401PW      WP27138   5.724   6.960  11.595 -0.1593  0.1024 -0.3009
 7401PW      WM27139   5.604   7.150  11.520  0.1076 -0.2365  0.3990
 7402PW       W27140  11.491   8.540   3.368 -0.2043 -0.2224 -0.1228
 7402PW      WP27141  11.354   8.546   3.399 -0.0636  0.0314  0.5262
 7402PW      WM27142  11.531   8.546   3.502  0.0708 -0.1033 -0.2078
 7403PW       W27143   2.287   9.563  12.356 -0.2788 -0.2488 -0.2563
 7403PW      WP27144   2.165   9.590  12.421  0.2332 -0.0905  0.7440
 7403PW      WM27145   2.389   9.655  12.385 -0.1325 -0.5296  0.1743
 7404PW       W27146   3.086   3.061   0.913 -0.0685 -0.0092 -0.0976
 7404PW      WP27147   3.125   2.940   0.855 -0.0195 -0.1153  0.1502
 7404PW      WM27148   3.014   3.150   0.994 -0.0141  0.3100 -0.3854
 7405PW       W27149   2.349  11.308   4.714 -0.3706 -0.0092 -0.0733
 7405PW      WP27150   2.330  11.174   4.749  0.1105 -0.1821 -0.4102
 7405PW      WM27151   2.350  11.333   4.576  0.3919 -0.2630 -0.1398
 7406PW       W27152   4.146   9.354   9.824 -0.1562  0.2261  0.0885
 7406PW      WP27153   4.071   9.278   9.915 -0.2387  0.2903  0.0741
 7406PW      WM27154   4.092   9.483   9.819 -0.3798  0.1281 -0.2489
 7407PW       W27155   8.838   1.912  12.656 -0.0187  0.1748  0.2354
 7407PW      WP27156   8.774   2.034  12.629 -0.3322  0.0911  0.5612
 7407PW      WM27157   8.969   1.868  12.678 -0.0156 -0.1296 -0.3073
 7408PW       W27158   3.084   6.595   0.632 -0.0824 -0.1997  0.2909
 7408PW      WP27159   3.051   6.663   0.514  0.3405 -0.2580  0.1325
 7408PW      WM27160   3.185   6.519   0.574 -0.1307 -0.1700  0.1666
 7409PW       W27161   0.657   3.615   2.120 -0.4679  0.1435  0.1605
 7409PW      WP27162   0.536   3.683   2.106 -0.5476 -0.0473 -0.1241
 7409PW      WM27163   0.718   3.732   2.166  0.0314  0.1118 -0.3594
 7410PW       W27164   5.538  11.163  11.390 -0.3597 -0.3046 -0.1726
 7410PW      WP27165   5.477  11.041  11.357 -0.3129 -0.3955  0.0689
 7410PW      WM27166   5.409  11.217  11.382 -0.2782 -0.0983 -0.1054
 7411PW       W27167   3.882   7.446   1.990 -0.0089 -1.0390  0.1987
 7411PW      WP27168   4.001   7.482   2.055 -0.1700  0.2241 -0.0755
 7411PW      WM27169   3.972   7.433   1.884 -0.0183  0.1280 -0.0180
 7412PW       W27170   4.358   9.160   3.491 -0.4930 -0.1297 -0.1093
 7412PW      WP27171   4.301   9.050   3.557 -0.3049 -0.1093  0.0923
 7412PW      WM27172   4.309   9.275   3.428 -0.2060  0.0199 -0.0649
 7413PW       W27173   3.571   9.912   1.287 -0.0435  0.0425  0.0496
 7413PW      WP27174   3.550  10.046   1.321 -0.0777  0.0165  0.1315
 7413PW      WM27175   3.580   9.911   1.147 -0.2490  0.1051  0.0338
 7414PW       W27176   2.457   3.093   1.454  0.0500 -0.4812 -0.3831
 7414PW      WP27177   2.544   3.159   1.366  0.1246 -0.0394  0.0010
 7414PW      WM27178   2.330   3.057   1.407 -0.2458  0.0570 -0.0462
 7415PW       W27179   6.439  10.897  11.997  0.1984  0.1342 -0.1166
 7415PW      WP27180   6.352  10.787  11.999 -0.0445  0.3194  0.3662
 7415PW      WM27181   6.554  10.818  11.983  0.4205  0.4628 -0.1851
 7416PW       W27182   3.874   4.659   1.166  0.2873 -0.2636 -0.2913
 7416PW      WP27183   3.764   4.658   1.252  0.4470 -0.1306 -0.0813
 7416PW      WM27184   3.862   4.547   1.249 -0.1301  0.0462  0.0876
 7417PW       W27185   6.762   1.261   3.601  0.5927  0.1884  0.3048
 7417PW      WP27186   6.669   1.333   3.677 -0.1498 -0.3011 -0.0780
 7417PW      WM27187   6.810   1.278   3.471  0.4297  0.5217  0.2832
 7418PW       W27188   1.800   7.761   2.961  0.1480  0.2800 -0.2547
 7418PW      WP27189   1.731   7.640   2.959  0.6596 -0.0290 -0.1323
 7418PW      WM27190   1.896   7.807   3.052 -0.0043 -0.1940  0.1675
 7419PW       W27191   6.362   2.506   1.595  0.1939  0.1022 -0.5358
 7419PW      WP27192   6.252   2.431   1.638  0.6190 -0.3748 -0.2164
 7419PW      WM27193   6.353   2.527   1.733 -0.0636 -0.0944 -0.5202
 7420PW       W27194   8.591  11.090   0.997  0.0194 -0.1739  0.1693
 7420PW      WP27195   8.693  11.005   0.951  0.2785  0.1861  0.0558
 7420PW      WM27196   8.660  11.113   1.117 -0.5341  0.6686  0.3700
 7421PW       W27197   2.869   6.029  11.936 -0.2307 -0.1010  0.3133
 7421PW      WP27198   2.930   6.110  12.032  0.0389 -0.0909  0.1382
 7421PW      WM27199   2.861   6.143  12.017  0.1802  0.2319 -0.0922
 7422PW       W27200   3.096  11.835   8.974  0.0603  0.1395 -0.2346
 7422PW      WP27201   3.015  11.949   8.955 -0.0575  0.0454 -0.3092
 7422PW      WM27202   3.226  11.826   9.023 -0.0994 -0.4236  0.1218
 7423PW       W27203   7.508   7.481  10.189 -0.4792  0.0139 -0.0456
 7423PW      WP27204   7.503   7.344  10.162  0.4050 -0.1657  0.4935
 7423PW      WM27205   7.493   7.490  10.328  0.3357  0.1886  0.0596
 7424PW       W27206   0.585  10.835  10.416  0.1270 -0.2958 -0.2485
 7424PW      WP27207   0.558  10.970  10.444  0.6300 -0.2549  0.1188
 7424PW      WM27208   0.471  10.790  10.482  0.4769 -0.4055  0.3178
 7425PW       W27209   4.022  12.016  10.367  0.3325 -0.1014 -0.1198
 7425PW      WP27210   3.946  12.071  10.471  0.5739 -0.5718  0.3318
 7425PW      WM27211   4.154  12.017  10.318  0.3123 -0.2874 -0.1825
 7426PW       W27212   1.251   4.915  12.225  0.3403  0.4926  0.0209
 7426PW      WP27213   1.166   4.987  12.310  0.3173 -0.0257  0.4586
 7426PW      WM27214   1.312   4.866  12.108 -0.1441  0.1424 -0.1018
 7427PW       W27215   5.187   4.078   5.053  0.2656  0.3265 -0.0171
 7427PW      WP27216   5.182   4.005   5.173  0.1071  0.1887 -0.1046
 7427PW      WM27217   5.256   4.037   4.938 -0.0673 -0.2821 -0.0254
 7428PW       W27218  12.098   1.551   1.923  0.7003 -0.3386 -0.3693
 7428PW      WP27219  12.019   1.436   1.908  0.2682 -0.1672  0.3549
 7428PW      WM27220  12.089   1.680   1.869  0.0387 -0.2861 -0.1677
 7429PW       W27221   3.768   8.188  11.941  0.6293 -0.2540  0.0653
 7429PW      WP27222   3.789   8.112  12.057 -0.0265  0.5166  0.7511
 7429PW      WM27223   3.735   8.180  11.805 -0.2924  0.4156  0.1993
 7430PW       W27224   4.871   0.551   4.251  0.1766 -0.0882  0.0939
 7430PW      WP27225   4.746   0.556   4.188  0.3911 -0.0350 -0.3517
 7430PW      WM27226   4.906   0.671   4.188 -0.3044  0.0697  0.1053
 7431PW       W27227  11.070   4.636  12.135 -0.1631  0.0997 -0.0251
 7431PW      WP27228  11.033   4.503  12.111 -0.1766  0.0739  0.1339
 7431PW      WM27229  10.940   4.605  12.093 -0.0536  0.1869 -0.4557
 7432PW       W27230  11.067   9.368   3.644  0.1605 -0.0207 -0.7726
 7432PW      WP27231  11.201   9.332   3.664  0.0846 -0.0023 -0.1317
 7432PW      WM27232  11.109   9.496   3.605 -0.4133  0.3666 -0.2203
 7433PW       W27233   9.556   4.316  11.250  0.4362  0.0609  0.1240
 7433PW      WP27234   9.451   4.401  11.287  0.1707  0.2085 -0.8210
 7433PW      WM27235   9.596   4.310  11.384  0.1967 -0.1931  0.1862
 7434PW       W27236   1.437   0.821  12.804  0.3149 -0.1659 -0.4555
 7434PW      WP27237   1.445   0.947  12.743  0.0413  0.1634  0.1455
 7434PW      WM27238   1.507   0.797  12.923  0.1617 -0.2496 -0.3803
 7435PW       W27239   8.882   3.031   2.555 -0.2206 -0.7570  0.2063
 7435PW      WP27240   8.877   3.022   2.694 -0.4591 -0.0327  0.2680
 7435PW      WM27241   8.996   2.989   2.624 -0.1104 -0.3549  0.2806
 7436PW       W27242   3.839   4.989   4.450 -0.2719  0.5474  0.1564
 7436PW      WP27243   3.742   5.087   4.476 -0.7211  0.1315  0.1159
 7436PW      WM27244   3.864   4.901   4.344 -0.5084  0.9535 -0.2576
 7437PW       W27245   8.667   3.944   4.355 -0.2442 -0.1466  0.0099
 7437PW      WP27246   8.587   3.962   4.242 -0.3962  0.1396  0.1594
 7437PW      WM27247   8.795   3.911   4.402  0.0351  0.8082  0.0346
 7438PW       W27248   7.771   1.021   2.409  0.0530 -0.1249  0.2637
 7438PW      WP27249   7.877   0.936   2.373  0.1132  0.1532 -0.2695
 7438PW      WM27250   7.743   1.152   2.369  0.1261 -0.0944  0.3093
 7439PW       W27251  11.231  10.234   2.179 -0.0658 -0.2144  0.3116
 7439PW      WP27252  11.347  10.156   2.165  0.2334  0.2809 -0.1199
 7439PW      WM27253  11.155  10.347   2.210 -0.0298 -0.0887 -0.0425
 7440PW       W27254   6.701   6.314  12.702 -0.2446 -0.0159 -0.2364
 7440PW      WP27255   6.576   6.367  12.734 -0.1266  0.0501  0.1333
 7440PW      WM27256   6.639   6.231  12.608 -0.3230  0.4916 -0.6569
 7441PW       W27257  10.565  10.670   0.633 -0.1716  0.1434 -0.3086
 7441PW      WP27258  10.439  10.705   0.582 -0.5529  0.0667  0.5007
 7441PW      WM27259  10.590  10.594   0.518  0.0284  0.0482 -0.2044
 7442PW       W27260   5.155   5.438  10.976  0.3863  0.0274  0.4557
 7442PW      WP27261   5.094   5.436  11.102  0.2458  0.3618  0.3998
 7442PW      WM27262   5.225   5.318  10.957 -0.0514 -0.2252  0.3736
 7443PW       W27263  10.191   7.259  10.364  0.1551  0.0077 -0.1432
 7443PW      WP27264  10.199   7.127  10.410 -0.0199  0.1792  0.4185
 7443PW      WM27265  10.075   7.261  10.442 -0.0112  0.4265 -0.3863
 7444PW       W27266   8.109   6.692  10.051  0.0304  0.1159 -0.2960
 7444PW      WP27267   7.996   6.770  10.078  0.1190  0.1289  0.0537
 7444PW      WM27268   8.058   6.689   9.920  0.1191  0.0146 -0.3296
 7445PW       W27269  11.315   4.283   9.792 -0.2372 -0.4829 -0.0105
 7445PW      WP27270  11.212   4.368   9.752  0.3598  0.2357 -0.1277
 7445PW      WM27271  11.245   4.384   9.859  0.4015 -0.1638  0.2263
 7446PW       W27272   6.345   3.637   9.146 -0.1377 -0.6409 -0.1549
 7446PW      WP27273   6.411   3.516   9.174 -0.0394 -0.6460 -0.4020
 7446PW      WM27274   6.291   3.764   9.125  0.8327 -0.1814 -0.1412
 7447PW       W27275   1.186   5.090   9.988  0.5904  0.5618  0.2725
 7447PW      WP27276   1.196   5.151  10.114  0.1847  0.1410  0.5244
 7447PW      WM27277   1.302   5.044   9.924 -0.0786 -0.3403 -0.4471
 7448PW       W27278   9.419  10.817   1.919 -0.3428  0.1286  0.3724
 7448PW      WP27279   9.481  10.942   1.901 -0.1401 -0.0299 -0.1185
 7448PW      WM27280   9.289  10.864   1.941 -0.6740 -0.4906 -0.1247
 7449PW       W27281   9.184  10.269   2.711 -0.1782 -0.3259  0.3702
 7449PW      WP27282   9.266  10.274   2.598 -0.1522  0.3141  0.3996
 7449PW      WM27283   9.057  10.267   2.653  0.1512 -0.4723 -0.4024
 7450PW       W27284   1.164   5.232   0.243  0.0620 -0.0438 -0.3210
 7450PW      WP27285   1.144   5.346   0.323 -0.3825 -0.5637  0.3611
 7450PW      WM27286   1.117   5.110   0.294  0.3140 -0.0161 -0.0052
 7451PW       W27287  11.526   7.189   3.571 -0.3438 -0.2927 -0.0851
 7451PW      WP27288  11.640   7.269   3.589 -0.3783 -0.2838  0.1073
 7451PW      WM27289  11.562   7.109   3.681  0.3131 -0.2392 -0.2365
 7452PW       W27290   1.664  10.023   1.979  0.0347 -0.0950 -0.4954
 7452PW      WP27291   1.697  10.110   2.084 -0.0440 -0.1613 -0.4158
 7452PW      WM27292   1.554  10.109   1.975  0.3302  0.3453  0.0901
 7453PW       W27293   4.134   5.089   4.080  0.1261  0.0690 -0.0918
 7453PW      WP27294   4.062   5.037   3.972 -0.1081  0.1875  0.0038
 7453PW      WM27295   4.260   5.121   4.028  0.2956  0.3993  0.4823
 7454PW       W27296   5.348   6.417   0.895 -0.2093 -0.1075  0.2415
 7454PW      WP27297   5.402   6.287   0.892  0.4610  0.1471  0.2260
 7454PW      WM27298   5.280   6.444   1.014 -0.1865 -0.1027  0.2534
 7455PW       W27299   6.889  10.024  11.635 -0.1136 -0.3340 -0.1517
 7455PW      WP27300   6.879  10.114  11.742 -0.1932 -0.3988 -0.1041
 7455PW      WM27301   6.862   9.887  11.640  0.2213 -0.4144 -0.3507
 7456PW       W27302   8.248  10.794   3.583 -0.3949  0.1129  0.2715
 7456PW      WP27303   8.234  10.658   3.615 -0.0849  0.0967  0.3601
 7456PW      WM27304   8.357  10.807   3.670 -0.2282  0.3186  0.0378
 7457PW       W27305   1.567   2.776   0.063 -0.1366  0.1044  0.1432
 7457PW      WP27306   1.498   2.680  -0.010  0.0066  0.1733 -0.0879
 7457PW      WM27307   1.686   2.850   0.061  0.0146 -0.1250 -0.4448
 7458PW       W27308   8.846  11.308   4.196  0.1262  0.3859  0.1400
 7458PW      WP27309   8.779  11.316   4.073 -0.1061 -0.2337  0.2062
 7458PW      WM27310   8.918  11.320   4.076  0.3926 -0.3880  0.1948
 7459PW       W27311   9.702   4.349   9.224 -0.1128 -0.1363  0.2069
 7459PW      WP27312   9.642   4.449   9.301 -0.5045 -0.1130 -0.1118
 7459PW      WM27313   9.778   4.465   9.232  0.3138 -0.3697 -0.2165
 7460PW       W27314   7.785   9.954  11.959 -0.1078  0.1561 -0.0166
 7460PW      WP27315   7.725   9.995  12.079  0.0321  0.3422 -0.0083
 7460PW      WM27316   7.734   9.824  11.951  0.0098  0.1043  0.0583
 7461PW       W27317   5.033   4.190   2.902  0.0305  0.1224 -0.1380
 7461PW      WP27318   5.029   4.298   2.991 -0.0421 -0.1015  0.1383
 7461PW      WM27319   5.095   4.073   2.946 -0.2889 -0.2760 -0.6860
 7462PW       W27320   9.374   6.143   5.038 -0.1591  0.0307 -0.4378
 7462PW      WP27321   9.309   6.029   5.086  0.0361  0.1448  0.1418
 7462PW      WM27322   9.488   6.104   5.110 -0.4273 -0.5476 -0.3036
 7463PW       W27323   5.038   0.904   0.471 -0.1254  0.0103 -0.1000
 7463PW      WP27324   4.936   0.954   0.553 -0.2888 -0.1404 -0.2098
 7463PW      WM27325   4.924   0.825   0.485 -0.1284  0.0709  0.2658
 7464PW       W27326  12.096   4.950  12.048  0.3474  0.4607 -0.1684
 7464PW      WP27327  12.158   4.824  12.057 -0.0721  0.2383 -0.2454
 7464PW      WM27328  12.006   5.000  11.953 -0.0480  0.0380 -0.0393
 7465PW       W27329   5.027   7.920   3.856  0.1921 -0.0109  0.9532
 7465PW      WP27330   4.937   8.023   3.886 -0.1711  0.0648 -0.1816
 7465PW      WM27331   5.126   8.013   3.888  0.2757  0.2639  0.0176
 7466PW       W27332   8.851   1.600   3.071 -0.2811 -0.3381 -0.1589
 7466PW      WP27333   8.768   1.519   2.994 -0.4902  0.1240 -0.4451
 7466PW      WM27334   8.981   1.610   3.020 -0.2822 -0.2589 -0.1473
 7467PW       W27335   3.711   7.233   2.388  0.3826 -0.1720  0.0534
 7467PW      WP27336   3.828   7.297   2.346  0.3562 -0.0837  0.1132
 7467PW      WM27337   3.659   7.359   2.419  0.0796 -0.4166  0.6120
 7468PW       W27338   7.962   2.644  12.760 -0.0345  0.5076 -0.0346
 7468PW      WP27339   7.968   2.587  12.888 -0.1694  0.5720  0.0009
 7468PW      WM27340   7.909   2.706  12.647  0.3811 -0.0925 -0.5993
 7469PW       W27341   4.874   9.226   3.504  0.1316 -0.1556  0.4189
 7469PW      WP27342   4.991   9.301   3.500  0.1678 -0.2044 -0.5552
 7469PW      WM27343   4.767   9.273   3.582 -0.3077 -0.1650 -0.1437
 7470PW       W27344   5.491   8.091  11.514 -0.0741 -0.4042 -0.0175
 7470PW      WP27345   5.556   8.079  11.390  0.0998  0.5510 -0.0581
 7470PW      WM27346   5.427   8.106  11.637 -0.0805 -0.2250 -0.0420
 7471PW       W27347  10.124   8.621  10.075 -0.1673  0.0901  0.0438
 7471PW      WP27348  10.027   8.552  10.149 -0.1344 -0.1680 -0.1438
 7471PW      WM27349  10.187   8.702   9.981 -0.2499  0.5034  0.3306
 7472PW       W27350   3.538   5.649  12.906  0.3056  0.9628 -0.0800
 7472PW      WP27351   3.449   5.672  12.801 -0.1700 -0.3389 -0.0486
 7472PW      WM27352   3.674   5.645  12.939  0.3182 -0.2845 -0.0424
 7473PW       W27353   4.725   8.692  11.730 -0.2270 -0.0002  0.1101
 7473PW      WP27354   4.809   8.629  11.823  0.3774  0.3199 -0.1930
 7473PW      WM27355   4.819   8.698  11.627 -0.2509 -0.4730  0.0464
 7474PW       W27356   0.505   3.995   2.950 -0.5672  0.3086  0.3946
 7474PW      WP27357   0.489   4.051   3.077 -0.4658  0.5878  0.2879
 7474PW      WM27358   0.469   4.043   2.824 -0.0302  0.0762  0.1345
 7475PW       W27359   6.348   7.941   1.738  0.2979 -0.0234 -0.3863
 7475PW      WP27360   6.353   7.813   1.680  0.3488  0.0174 -0.4724
 7475PW      WM27361   6.275   7.945   1.858  0.0640 -0.4636 -0.4997
 7476PW       W27362   9.689   3.762   0.763  0.1995 -0.2653 -0.0051
 7476PW      WP27363   9.772   3.875   0.755  0.2237 -0.2378  0.4680
 7476PW      WM27364   9.752   3.756   0.638 -0.0499  0.2124 -0.1646
 7477PW       W27365   9.813   6.143   9.729 -0.2991  0.2431 -0.1695
 7477PW      WP27366   9.952   6.132   9.723 -0.3014 -0.3584  0.3852
 7477PW      WM27367   9.748   6.171   9.608 -0.2159 -0.0183 -0.2764
 7478PW       W27368   8.417   4.685   8.328 -0.0259 -0.0051 -0.1135
 7478PW      WP27369   8.556   4.693   8.330  0.0023 -0.1522 -0.6388
 7478PW      WM27370   8.506   4.587   8.284  0.1692  0.2539 -0.3143
 7479PW       W27371   2.763   8.189   8.840 -0.3322  0.0752  0.1569
 7479PW      WP27372   2.707   8.308   8.793 -0.1191  0.0898 -0.0709
 7479PW      WM27373   2.777   8.135   8.968 -0.2935  0.1477  0.1834
 7480PW       W27374   7.500   1.075   1.994  0.0173 -0.2553  0.3284
 7480PW      WP27375   7.539   0.995   1.885  0.2165  0.2895 -0.0227
 7480PW      WM27376   7.415   1.004   2.079 -0.5842 -0.4388 -0.3729
 7481PW       W27377   2.073   4.292   1.403 -0.3538  0.2428  0.2172
 7481PW      WP27378   2.177   4.342   1.482 -0.0457 -0.0788  0.0302
 7481PW      WM27379   2.125   4.219   1.295  0.3396  0.6427  0.2462
 7482PW       W27380   1.567   8.233   4.990  0.4703 -0.5101  0.1467
 7482PW      WP27381   1.537   8.284   5.116  0.0819 -0.2395 -0.0459
 7482PW      WM27382   1.464   8.183   4.909  0.1238 -0.1675  0.3604
 7483PW       W27383   5.449   7.815   4.952  0.4562  0.1118  0.0732
 7483PW      WP27384   5.588   7.804   4.949  0.4207 -0.6298  0.0585
 7483PW      WM27385   5.405   7.707   5.030 -0.6193  0.3533 -0.1152
 7484PW       W27386   0.791  11.213  12.584 -0.2523 -0.3194 -0.4316
 7484PW      WP27387   0.827  11.348  12.567 -0.0018 -0.2278  0.5369
 7484PW      WM27388   0.876  11.110  12.625 -0.1408 -0.0139  0.1666
 7485PW       W27389   4.753   1.029  10.453  0.0362 -0.1262 -0.3421
 7485PW      WP27390   4.668   1.105  10.535  0.3982 -0.0611 -0.0165
 7485PW      WM27391   4.860   1.017  10.542  0.2828 -0.0247 -0.6148
 7486PW       W27392   8.401  12.097  12.972 -0.0288 -0.5288  0.0603
 7486PW      WP27393   8.355  12.083  13.104 -0.1176  0.2334  0.1299
 7486PW      WM27394   8.538  12.109  12.948 -0.1132  0.6993 -0.1005
 7487PW       W27395   1.642   5.681   8.711 -0.1353  0.2197  0.0963
 7487PW      WP27396   1.721   5.611   8.619 -0.1851 -0.0776  0.2742
 7487PW      WM27397   1.745   5.734   8.789  0.3221 -0.2540 -0.1511
 7488PW       W27398   0.163   4.203   9.347  0.1817  0.4268  0.4447
 7488PW      WP27399   0.252   4.123   9.420 -0.3622 -0.2469  0.4167
 7488PW      WM27400   0.108   4.299   9.432 -0.0371  0.4998  0.2266
 7489PW       W27401   6.583   3.428  12.806 -0.1139  0.1666 -0.0984
 7489PW      WP27402   6.581   3.298  12.754  0.5345  0.0780  0.0510
 7489PW      WM27403   6.482   3.498  12.739 -0.3792  0.0943  0.2163
 7490PW       W27404   4.222   2.812  10.063 -0.0008  0.1359 -0.4700
 7490PW      WP27405   4.319   2.912  10.079 -0.0508  0.1383 -0.1377
 7490PW      WM27406   4.314   2.709  10.081  0.1591  0.2559 -0.5822
 7491PW       W27407   4.604   4.084   0.998  0.1651 -0.3448  0.0220
 7491PW      WP27408   4.513   4.099   1.103 -0.1447  0.1631 -0.2984
 7491PW      WM27409   4.617   3.981   0.904 -0.3684 -0.3675 -0.0434
 7492PW       W27410   2.383   5.786   0.371  0.3862  0.1866 -0.0191
 7492PW      WP27411   2.384   5.793   0.510  0.1641  0.0900 -0.0111
 7492PW      WM27412   2.437   5.864   0.474  0.2213 -0.2123  0.3820
 7493PW       W27413   6.543   7.984  10.354 -0.2921  0.1857  0.5250
 7493PW      WP27414   6.445   7.884  10.346 -0.0093 -0.0889 -0.8452
 7493PW      WM27415   6.652   7.933  10.425 -0.1025  0.0654  0.1587
 7494PW       W27416   0.679   9.323   5.438 -0.0560  0.2923 -0.2306
 7494PW      WP27417   0.635   9.432   5.362 -0.1217  0.3326 -0.1366
 7494PW      WM27418   0.806   9.364   5.398  0.0876 -0.1258 -0.2207
 7495PW       W27419  12.086   5.891   0.403  0.1872 -0.0027  0.2343
 7495PW      WP27420  12.054   5.911   0.268  0.6754 -0.0928  0.0974
 7495PW      WM27421  12.151   5.821   0.504  0.3292 -0.2071  0.0063
 7496PW       W27422   2.368   0.935   2.443  0.4640 -0.1950  0.0108
 7496PW      WP27423   2.397   1.071   2.457  0.0954 -0.0714 -0.3234
 7496PW      WM27424   2.405   0.805   2.406 -0.1029 -0.2576 -0.4063
 7497PW       W27425  11.044   3.920   1.713 -0.2313  0.2199  0.5725
 7497PW      WP27426  11.134   3.858   1.801  0.6610  0.5455 -0.0377
 7497PW      WM27427  10.917   3.911   1.771 -0.3104  0.3336  0.4205
 7498PW       W27428   9.986   8.749  13.118 -0.1752  0.1886  0.3507
 7498PW      WP27429   9.883   8.654  13.109  0.1813 -0.1866  0.0313
 7498PW      WM27430   9.905   8.861  13.094 -0.0664  0.1401 -0.3475
 7499PW       W27431   1.545  10.288   4.193  0.0391 -0.2144 -0.0384
 7499PW      WP27432   1.648  10.256   4.282 -0.0715 -0.7748 -0.0913
 7499PW      WM27433   1.477  10.388   4.122  0.1199  0.0072  0.1902
 7500PW       W27434   5.207   8.842   9.187  0.0211 -0.1942 -0.1413
 7500PW      WP27435   5.198   8.901   9.060  0.5064  0.5529  0.1348
 7500PW      WM27436   5.081   8.874   9.135  0.0123 -0.1765 -0.1096
 7501PW       W27437   9.025   4.828   3.361 -0.3795  0.0269  0.2154
 7501PW      WP27438   9.111   4.849   3.252 -0.3621 -0.1614  0.1916
 7501PW      WM27439   8.939   4.807   3.253 -0.1309 -0.1892  0.0537
 7502PW       W27440   4.304   0.544   4.427  0.3011 -0.3038 -0.3566
 7502PW      WP27441   4.300   0.414   4.375  0.2331 -0.4230 -0.0585
 7502PW      WM27442   4.177   0.557   4.369  0.1825  0.2346 -0.0066
 7503PW       W27443   6.224   6.302   0.205 -0.0056  0.0170  0.0670
 7503PW      WP27444   6.227   6.399   0.306 -0.1768  0.0755  0.0166
 7503PW      WM27445   6.292   6.365   0.101  0.4931 -0.3655  0.1415
 7504PW       W27446   5.647   5.370  13.224 -0.5585 -0.0108  0.1443
 7504PW      WP27447   5.776   5.369  13.279 -0.0438  0.1282 -0.9356
 7504PW      WM27448   5.632   5.315  13.097  0.2590 -0.0675  0.0485
 7505PW       W27449   1.765   8.928  11.337  0.0643 -0.4746  0.0600
 7505PW      WP27450   1.699   8.804  11.338 -0.5458 -0.1755 -0.3261
 7505PW      WM27451   1.700   9.002  11.436  0.5107  0.4336 -0.2738
 7506PW       W27452  10.065  10.996   9.411  0.2249 -0.3054  0.1416
 7506PW      WP27453  10.083  11.024   9.547  0.0733 -0.0029  0.1036
 7506PW      WM27454   9.948  10.920   9.398 -0.3707  0.5717 -0.0314
 7507PW       W27455   8.785  10.194  11.012 -0.0159  0.0206  0.4039
 7507PW      WP27456   8.761  10.331  10.995  0.3595  0.0238 -0.2501
 7507PW      WM27457   8.691  10.107  11.068 -0.4088  0.1686  0.0018
 7508PW       W27458   7.460  10.599   1.388  0.1493  0.0613  0.7078
 7508PW      WP27459   7.510  10.478   1.339 -0.0333 -0.0220  0.7231
 7508PW      WM27460   7.544  10.677   1.309 -0.2188 -0.1679  0.0489
 7509PW       W27461   8.829   8.150  10.775  0.3371  0.2168 -0.1708
 7509PW      WP27462   8.797   8.172  10.640 -0.4586  0.3760  0.0205
 7509PW      WM27463   8.888   8.277  10.786  0.4287  0.1531  0.0975
 7510PW       W27464   9.555   3.527   9.213  0.1375  0.0826 -0.2813
 7510PW      WP27465   9.436   3.543   9.285  0.3541 -0.2952  0.1829
 7510PW      WM27466   9.667   3.455   9.256  0.0705  0.3772  0.4457
 7511PW       W27467   4.089   2.524   1.645  0.2240 -0.1708 -0.0758
 7511PW      WP27468   4.134   2.622   1.556  0.5699 -0.3412 -0.0984
 7511PW      WM27469   4.096   2.392   1.693  0.4553 -0.2181 -0.2297
 7512PW       W27470  11.175  11.263   4.094  0.1846 -0.0211  0.1430
 7512PW      WP27471  11.066  11.322   4.160  0.1224 -0.0854  0.0979
 7512PW      WM27472  11.305  11.232   4.054  0.2797  0.3419  0.1523
 7513PW       W27473   6.795   2.692   2.437 -0.3952 -0.0676  0.0811
 7513PW      WP27474   6.883   2.739   2.338 -0.2067 -0.0053  0.2727
 7513PW      WM27475   6.761   2.827   2.422 -0.1160 -0.0396 -0.4339
 7514PW       W27476   2.038   2.855  13.227  0.1147  0.0549 -0.0127
 7514PW      WP27477   2.132   2.868  13.124  0.1468  0.0460  0.0156
 7514PW      WM27478   1.923   2.855  13.147 -0.0833  0.3176  0.2595
 7515PW       W27479   7.398  10.990   2.731 -0.6304 -0.2790 -0.0295
 7515PW      WP27480   7.411  11.109   2.804 -0.0445 -0.4740  0.2127
 7515PW      WM27481   7.380  11.104   2.651 -0.2113 -0.1206  0.0864
 7516PW       W27482   2.240   2.252   4.912  0.1109 -0.1897  0.0262
 7516PW      WP27483   2.345   2.335   4.955  0.0038 -0.0312 -0.0164
 7516PW      WM27484   2.176   2.214   4.794  0.5378 -0.5802 -0.0919
 7517PW       W27485   6.974   7.149   8.914  0.3493 -0.0227  0.3878
 7517PW      WP27486   7.019   7.032   8.852 -0.3591  0.0616 -0.3623
 7517PW      WM27487   6.986   7.187   8.780 -0.4008  0.6851  0.4791
 7518PW       W27488   3.495  11.866   4.095 -0.1564 -0.2015  0.3423
 7518PW      WP27489   3.385  11.882   4.179 -0.1490  0.0851  0.3032
 7518PW      WM27490   3.400  11.771   4.058 -0.0179 -0.1544 -0.1764
 7519PW       W27491   6.558   2.672   4.574 -0.1543 -0.3542  0.5209
 7519PW      WP27492   6.431   2.665   4.517  0.1097 -0.0084 -0.1692
 7519PW      WM27493   6.543   2.809   4.545  0.7036 -0.3253  0.0445
 7520PW       W27494   3.645  10.888   1.988  0.2152  0.3005  0.0357
 7520PW      WP27495   3.735  10.838   2.083 -0.1032  0.0646  0.2255
 7520PW      WM27496   3.570  10.999   1.950  0.1878  0.2728  0.0076
 7521PW       W27497   6.565   8.555   4.587 -0.4666 -0.0171  0.1097
 7521PW      WP27498   6.517   8.681   4.549  0.3200  0.1347 -0.5395
 7521PW      WM27499   6.609   8.643   4.686  0.3312 -0.0395 -0.1850
 7522PW       W27500   7.117   3.355   2.162  0.0131  0.0148  0.3206
 7522PW      WP27501   7.245   3.308   2.197  0.0478 -0.1668 -0.0267
 7522PW      WM27502   6.983   3.336   2.197 -0.1423  0.0540 -0.2199
 7523PW       W27503   2.359   7.616   3.061  0.2129  0.1803  0.0282
 7523PW      WP27504   2.337   7.485   3.017  0.2932 -0.0123  0.5262
 7523PW      WM27505   2.266   7.689   3.136 -0.2620 -0.2753 -0.0883
 7524PW       W27506   4.787   6.638  11.097  0.0612  0.0796 -0.5714
 7524PW      WP27507   4.661   6.577  11.094  0.0451  0.0672 -0.0971
 7524PW      WM27508   4.899   6.720  11.079 -0.1146  0.3653 -0.4084
 7525PW       W27509   6.830   4.987   2.295 -0.1155  0.0175  0.2107
 7525PW      WP27510   6.874   4.856   2.268 -0.1447  0.2223 -1.1761
 7525PW      WM27511   6.798   4.952   2.427 -0.3663 -0.1972  0.0977
 7526PW       W27512  10.107   4.460  11.278 -0.0110 -0.4943  0.0002
 7526PW      WP27513  10.205   4.393  11.204  0.4098 -0.1077  0.1828
 7526PW      WM27514  10.015   4.486  11.380  0.0430  0.6159 -0.1714
 7527PW       W27515   9.322  10.770   2.804 -0.1192  0.6768 -0.0799
 7527PW      WP27516   9.304  10.858   2.911  0.0104  0.4674  0.1174
 7527PW      WM27517   9.233  10.677   2.858  0.0605  0.3276 -0.3627
 7528PW       W27518   9.933   6.726  10.917 -0.0723  0.4662  0.2647
 7528PW      WP27519   9.995   6.789  10.808  0.0977 -0.5909 -0.3115
 7528PW      WM27520   9.804   6.692  10.874 -0.0006  0.0505  0.3589
 7529PW       W27521   4.425   2.812   3.237 -0.2930  0.1532  0.1234
 7529PW      WP27522   4.514   2.768   3.138 -0.4290  0.5328 -0.1770
 7529PW      WM27523   4.406   2.827   3.375 -0.1548  0.3058  0.1276
 7530PW       W27524   8.967   8.653  11.578 -0.2937  0.2321 -0.1878
 7530PW      WP27525   8.848   8.629  11.647  0.0909 -0.0773  0.4230
 7530PW      WM27526   8.947   8.516  11.555  0.6598  0.0581 -0.1940
 7531PW       W27527   1.211   9.406  13.011  0.1425 -0.2488  0.0420
 7531PW      WP27528   1.349   9.415  12.990  0.1350 -0.4291 -0.1042
 7531PW      WM27529   1.110   9.412  13.107  0.0671  0.0288 -0.0502
 7532PW       W27530   4.620   3.686  11.846  0.0059  0.5841  0.1709
 7532PW      WP27531   4.520   3.737  11.763  0.1627  0.5586 -0.0367
 7532PW      WM27532   4.490   3.666  11.895 -0.0754 -0.1827 -0.2726
 7533PW       W27533   4.473   4.793   3.407 -0.2484  0.1430 -0.0760
 7533PW      WP27534   4.536   4.775   3.530 -0.1364  0.0663 -0.1439
 7533PW      WM27535   4.443   4.929   3.394 -0.2516  0.1240 -0.2863
 7534PW       W27536   5.033  11.134  11.691  0.3487 -0.2671  0.1938
 7534PW      WP27537   4.974  11.238  11.763  0.0462 -0.4039  0.1489
 7534PW      WM27538   5.157  11.093  11.742  0.2683 -0.2026  0.4496
 7535PW       W27539   7.315   4.976   2.868 -0.1987 -0.1285 -0.2240
 7535PW      WP27540   7.296   5.069   2.766  0.0069  0.0433 -0.1098
 7535PW      WM27541   7.383   5.028   2.978  0.0767  0.2985 -0.5806
 7536PW       W27542   1.748   6.846  10.813 -0.2203 -0.1157  0.0713
 7536PW      WP27543   1.872   6.879  10.869 -0.2740  0.2459 -0.0080
 7536PW      WM27544   1.784   6.950  10.726  0.1065 -0.0919  0.2297
 7537PW       W27545   9.694   0.413   9.431 -0.2238 -0.4408  0.1107
 7537PW      WP27546   9.648   0.368   9.307  0.0912 -0.1687 -0.1136
 7537PW      WM27547   9.648   0.369   9.556 -0.2705  0.3995  0.4255
 7538PW       W27548   2.304   6.226   4.421  0.0913 -0.4518  0.0928
 7538PW      WP27549   2.443   6.211   4.428  0.1338 -0.2371 -0.1964
 7538PW      WM27550   2.228   6.223   4.538 -0.1812 -0.0052 -0.0601
 7539PW       W27551   7.172  11.296  10.579 -0.1778  0.1353  0.0613
 7539PW      WP27552   7.143  11.212  10.471  0.4732 -0.2839  0.1864
 7539PW      WM27553   7.125  11.170  10.617 -0.4372  0.2805  0.2447
 7540PW       W27554   9.402   1.183   4.169 -0.2157  0.6904  0.1969
 7540PW      WP27555   9.424   1.282   4.073  0.5205  0.1040 -0.2984
 7540PW      WM27556   9.383   1.044   4.178 -0.5672  0.6197 -0.8986
 7541PW       W27557   3.275  11.396   3.256 -0.1279  0.1570  0.3267
 7541PW      WP27558   3.299  11.410   3.393  0.1256 -0.1835  0.3259
 7541PW      WM27559   3.281  11.257   3.239 -0.0737  0.2041 -0.0809
 7542PW       W27560   9.572   0.691  11.185 -0.5904 -0.0126  0.4335
 7542PW      WP27561   9.509   0.597  11.102  0.2952 -0.0848 -0.2355
 7542PW      WM27562   9.517   0.816  11.216  0.2326  0.3842  0.4435
 7543PW       W27563   4.349   3.921   9.441  0.0618 -0.1578 -0.1571
 7543PW      WP27564   4.260   3.814   9.449 -0.2370  0.1088  0.4371
 7543PW      WM27565   4.451   3.928   9.537 -0.1726 -0.2180  0.1036
 7544PW       W27566   1.142   8.782  12.156  0.2670  0.6489 -0.0736
 7544PW      WP27567   1.245   8.825  12.240  0.6209  0.1052 -0.2063
 7544PW      WM27568   1.151   8.797  12.017  0.1237  0.1204 -0.1509
 7545PW       W27569   7.797   8.493  12.525 -0.1564 -0.3700  0.1491
 7545PW      WP27570   7.706   8.584  12.579 -0.4559 -0.3280 -0.3912
 7545PW      WM27571   7.771   8.438  12.651 -0.5747 -0.1017  0.1896
 7546PW       W27572  11.178   6.853  12.258 -0.0075 -0.4094 -0.1120
 7546PW      WP27573  11.173   6.987  12.220 -0.0440 -0.2739  0.3443
 7546PW      WM27574  11.255   6.905  12.363 -0.3598  0.1467 -0.1100
 7547PW       W27575   3.303   5.067   3.913 -0.4369  0.0691 -0.0311
 7547PW      WP27576   3.193   4.988   3.879 -0.2206 -0.2449 -0.0268
 7547PW      WM27577   3.291   5.085   3.775 -0.3924 -0.0087 -0.0457
 7548PW       W27578   4.450   6.288   4.833 -0.2502  0.0677 -0.1218
 7548PW      WP27579   4.347   6.317   4.923  0.0231 -0.0241  0.2292
 7548PW      WM27580   4.422   6.309   4.697 -0.3945  0.0215 -0.0996
 7549PW       W27581   0.353   1.167  11.324 -0.1541  0.1195 -0.2728
 7549PW      WP27582   0.414   1.263  11.406  0.0297 -0.5473  0.4293
 7549PW      WM27583   0.379   1.156  11.187 -0.2289 -0.3018 -0.2593
 7550PW       W27584  10.763   6.990   8.903  0.0066  0.2380 -0.1795
 7550PW      WP27585  10.841   6.920   8.810 -0.6468  0.0099 -0.5929
 7550PW      WM27586  10.715   6.864   8.867 -0.1948  0.2750 -0.0466
 7551PW       W27587   4.322  10.076  11.590  0.2226  0.1421 -0.3875
 7551PW      WP27588   4.239  10.183  11.556 -0.0695  0.2234  0.4747
 7551PW      WM27589   4.381  10.198  11.625  0.1028  0.0873  0.0250
 7552PW       W27590   2.009   9.444  10.456 -0.1201 -0.4167 -0.3199
 7552PW      WP27591   2.062   9.570  10.430  0.1342 -0.2913  0.6071
 7552PW      WM27592   1.997   9.405  10.590  0.1479  0.2216 -0.0913
 7553PW       W27593  10.122   8.424  12.750 -0.5127  0.1341 -0.1523
 7553PW      WP27594  10.036   8.319  12.715 -0.3317 -0.0758  0.0129
 7553PW      WM27595  10.228   8.395  12.663 -0.4289  0.0700 -0.0303
 7554PW       W27596   8.850   0.431   8.676  0.2778 -0.0323 -0.3990
 7554PW      WP27597   8.804   0.561   8.651  0.2365  0.0286 -0.0280
 7554PW      WM27598   8.802   0.339   8.582  0.3318 -0.0386 -0.4208
 7555PW       W27599   4.230   4.670   3.888 -0.0099  0.0993 -0.0938
 7555PW      WP27600   4.242   4.604   3.765  0.0388  0.3654 -0.2335
 7555PW      WM27601   4.295   4.558   3.835  0.1587  0.2811 -0.2823
 7556PW       W27602   0.730   8.811   1.970 -0.2127 -0.1403  0.2047
 7556PW      WP27603   0.754   8.896   2.079  0.4502 -0.4281  0.3070
 7556PW      WM27604   0.658   8.928   1.943  0.0160 -0.0548 -0.0564
 7557PW       W27605   8.825   6.572   2.749  0.4677  0.3906  0.1287
 7557PW      WP27606   8.904   6.478   2.816 -0.3266 -0.7353 -0.3556
 7557PW      WM27607   8.858   6.691   2.684  0.2131  0.4076  0.0235
 7558PW       W27608   1.373   5.287   4.173 -0.3252 -0.0922 -0.4240
 7558PW      WP27609   1.453   5.271   4.286 -0.1609  0.7329 -0.3912
 7558PW      WM27610   1.459   5.346   4.080 -0.0730 -0.3968 -0.3894
 7559PW       W27611  11.486   6.765   0.880 -0.0333 -0.2645 -0.3148
 7559PW      WP27612  11.563   6.693   0.973 -0.4660 -0.1490  0.1551
 7559PW      WM27613  11.597   6.689   0.919  0.1096 -0.0761 -0.3459
 7560PW       W27614   2.479   2.638   2.184 -0.0342  0.0732 -0.2915
 7560PW      WP27615   2.590   2.559   2.152  0.2192  0.1890  0.2399
 7560PW      WM27616   2.424   2.649   2.056  0.0829  0.2907 -0.3260
 7561PW       W27617   6.940   4.487   4.171  0.1179  0.2031 -0.1515
 7561PW      WP27618   6.934   4.479   4.031 -0.0330  0.0877 -0.1394
 7561PW      WM27619   6.921   4.350   4.195  0.3765  0.2192  0.1810
 7562PW       W27620   3.693  10.572  12.436  0.3253  0.0086  0.1699
 7562PW      WP27621   3.777  10.638  12.527  0.0178  0.3070  0.2470
 7562PW      WM27622   3.645  10.440  12.435  0.0209  0.1049 -0.4554
 7563PW       W27623  11.338  11.754   4.197 -0.0197 -0.4277 -0.2813
 7563PW      WP27624  11.428  11.856   4.166 -0.1961 -0.1851 -0.0210
 7563PW      WM27625  11.368  11.717   4.328  0.2248  0.0007 -0.2094
 7564PW       W27626   7.903   5.791   3.501 -0.1445  0.1899 -0.3582
 7564PW      WP27627   7.950   5.915   3.455  0.2583  0.2732  0.2257
 7564PW      WM27628   7.939   5.710   3.609  0.1280  0.6852 -0.0600
 7565PW       W27629   5.209   3.527   0.529 -0.1860  0.2806 -0.2100
 7565PW      WP27630   5.279   3.412   0.490  0.1449  0.1751  0.5840
 7565PW      WM27631   5.322   3.567   0.456 -0.0639 -0.2958 -0.3618
 7566PW       W27632   8.329  10.571  10.920 -0.0462  0.3718 -0.1740
 7566PW      WP27633   8.330  10.451  10.847 -0.1387  0.4472 -0.3011
 7566PW      WM27634   8.190  10.581  10.907 -0.0342  0.3926 -0.2899
 7567PW       W27635   4.651   9.082  13.145  0.2861 -0.3560  0.1753
 7567PW      WP27636   4.624   8.998  13.036  0.5158 -0.0134 -0.1583
 7567PW      WM27637   4.573   9.187  13.195 -0.3486 -0.4716 -0.4812
 7568PW       W27638   2.870   2.717   3.448 -0.0638  0.1689 -0.2721
 7568PW      WP27639   2.946   2.601   3.465 -0.1314  0.1090 -0.3777
 7568PW      WM27640   2.831   2.821   3.533  0.0109  0.2374 -0.3200
 7569PW       W27641   5.604   8.458  10.901 -0.2527 -0.0381  0.3456
 7569PW      WP27642   5.476   8.488  10.852  0.1165  0.2497 -0.5525
 7569PW      WM27643   5.689   8.346  10.905  0.3247  0.3618  0.0117
 7570PW       W27644   2.291   5.095  11.705 -0.4073 -0.3175  0.1136
 7570PW      WP27645   2.154   5.110  11.729 -0.3217 -0.1364  0.5344
 7570PW      WM27646   2.415   5.117  11.766 -0.4076 -0.2473  0.0893
 7571PW       W27647   6.763   1.119   5.000 -0.2184  0.1942 -0.3110
 7571PW      WP27648   6.659   1.028   5.023 -0.1080  0.1732  0.1391
 7571PW      WM27649   6.736   1.151   5.133  0.1425 -0.6314 -0.0065
 7572PW       W27650   3.274   0.355   4.673  0.0855  0.1802 -0.1184
 7572PW      WP27651   3.274   0.337   4.812  0.1803  0.1919 -0.1170
 7572PW      WM27652   3.193   0.456   4.619 -0.0271  0.2114  0.1044
 7573PW       W27653   7.098   2.173   5.515  0.1938 -0.3451 -0.2183
 7573PW      WP27654   7.087   2.305   5.561  0.6612 -0.1461 -0.6242
 7573PW      WM27655   7.011   2.197   5.408 -0.1203  0.4249  0.1736
 7574PW       W27656   3.527   8.353  11.183 -0.0679 -0.0218  0.5846
 7574PW      WP27657   3.452   8.238  11.211 -0.4887  0.0922  0.0237
 7574PW      WM27658   3.587   8.475  11.216  0.2714 -0.0684  0.1820
 7575PW       W27659   9.924  11.081  12.851  0.1293 -0.1921  0.0048
 7575PW      WP27660  10.063  11.091  12.841  0.1156  0.1438  0.1021
 7575PW      WM27661   9.838  11.161  12.775  0.0947  0.0923  0.3320
 7576PW       W27662   4.047   2.985   0.873  0.0017 -0.0589 -0.0584
 7576PW      WP27663   4.171   3.039   0.911 -0.1193  0.1604  0.0344
 7576PW      WM27664   4.001   3.061   0.981 -0.2101 -0.1431 -0.0860
 7577PW       W27665   4.053   9.898   8.235  0.1259  0.0333 -0.2266
 7577PW      WP27666   4.189   9.890   8.204  0.1891  0.2893 -0.0342
 7577PW      WM27667   4.067  10.030   8.278 -0.6276  0.1306 -0.2129
 7578PW       W27668   9.185   9.194   5.104 -0.1208 -0.0447  0.1666
 7578PW      WP27669   9.215   9.072   5.167 -0.0529  0.1201  0.4630
 7578PW      WM27670   9.249   9.281   5.016  0.3489 -0.0403  0.4950
 7579PW       W27671   8.241   5.584   5.694 -0.0015  0.0743  0.6758
 7579PW      WP27672   8.103   5.582   5.676  0.0857  0.3242 -0.2936
 7579PW      WM27673   8.303   5.708   5.674  0.0120 -0.0211  0.0210
 7580PW       W27674   1.749  10.821   8.876 -0.1055  0.1695 -0.2990
 7580PW      WP27675   1.870  10.858   8.815  0.2015  0.2509  0.3246
 7580PW      WM27676   1.746  10.700   8.945  0.2892  0.4031  0.1587
 7581PW       W27677   6.296  10.126   9.811 -0.4011  0.2562  0.1000
 7581PW      WP27678   6.359  10.214   9.722 -0.2099 -0.0595 -0.0875
 7581PW      WM27679   6.218  10.103   9.697  0.2216  0.3015 -0.3602
 7582PW       W27680   5.340   2.041   1.177  0.3522  0.3424 -0.0003
 7582PW      WP27681   5.378   1.916   1.227 -0.0597  0.3661  0.4000
 7582PW      WM27682   5.354   1.946   1.075  0.4725  0.1546  0.1875
 7583PW       W27683   9.117  11.051  11.350 -0.2720  0.3806  0.0301
 7583PW      WP27684   9.223  11.142  11.339 -0.1916  0.2346 -0.6377
 7583PW      WM27685   9.124  10.916  11.388  0.1519  0.2788 -0.3641
 7584PW       W27686   2.065   0.317   3.939 -0.0432  0.3882  0.0108
 7584PW      WP27687   2.180   0.244   3.974 -0.4582 -0.5366 -0.3977
 7584PW      WM27688   2.046   0.441   3.878 -0.0188  0.2253 -0.3398
 7585PW       W27689   3.785   0.687   0.377  0.0717  0.2425 -0.0391
 7585PW      WP27690   3.731   0.769   0.279  0.1095  0.1531 -0.1361
 7585PW      WM27691   3.752   0.777   0.478 -0.1040  0.3392 -0.1816
 7586PW       W27692   2.809   1.884   1.891 -0.2057  0.2049 -0.1207
 7586PW      WP27693   2.817   1.884   1.751 -0.3280 -0.0254 -0.1310
 7586PW      WM27694   2.944   1.911   1.916 -0.2379 -0.0285  0.3560
 7587PW       W27695   9.871   0.038   4.671  0.2522 -0.3234 -0.3762
 7587PW      WP27696   9.789   0.129   4.602  0.4304  0.0315 -0.1354
 7587PW      WM27697   9.825  -0.068   4.750  0.5194  0.1053  0.4102
 7588PW       W27698   1.185   5.665  10.618  0.2534 -0.2499 -0.9463
 7588PW      WP27699   1.088   5.737  10.546 -0.2907  0.0217 -0.0269
 7588PW      WM27700   1.308   5.733  10.627  0.0035  0.1695 -0.0823
 7589PW       W27701   6.575   7.232   4.929  0.1284  0.2993 -0.0212
 7589PW      WP27702   6.548   7.158   5.046  0.3482 -0.1628 -0.2477
 7589PW      WM27703   6.487   7.311   4.855  0.0029  0.0332 -0.1620
 7590PW       W27704   2.737  10.299   8.519  0.4349 -0.0236 -0.0549
 7590PW      WP27705   2.658  10.184   8.531 -0.1774  0.3736 -0.0790
 7590PW      WM27706   2.702  10.389   8.620 -0.2152  0.0944 -0.3583
 7591PW       W27707   6.459   7.128  10.349 -0.5231 -0.0405  0.3082
 7591PW      WP27708   6.417   7.066  10.231  0.2097  0.0080 -0.0043
 7591PW      WM27709   6.541   7.031  10.409  0.0964  0.2474 -0.0285
 7592PW       W27710  10.096   1.074   2.775 -0.1510  0.1700  0.0439
 7592PW      WP27711  10.120   0.974   2.681  0.0223  0.4103 -0.1759
 7592PW      WM27712  10.031   1.013   2.883 -0.2696  0.0780 -0.0787
 7593PW       W27713   9.879  10.361  10.380 -0.0943 -0.0741  0.2853
 7593PW      WP27714   9.826  10.472  10.445 -0.1317  0.1522 -0.1152
 7593PW      WM27715   9.942  10.465  10.449 -0.3570 -0.1299  0.6185
 7594PW       W27716   7.118  11.283  13.173 -0.5448 -0.2909  0.2506
 7594PW      WP27717   7.220  11.188  13.154 -0.3208  0.0079 -0.1336
 7594PW      WM27718   7.047  11.263  13.054  0.0581  0.3833 -0.2675
 7595PW       W27719   6.499   4.558   1.999 -0.1434 -0.2394 -0.3971
 7595PW      WP27720   6.360   4.581   1.996 -0.1155  0.0326 -0.0164
 7595PW      WM27721   6.599   4.654   2.018 -0.1969 -0.1634 -0.4914
 7596PW       W27722  11.795   9.220   9.095 -0.1429 -0.1788 -0.0561
 7596PW      WP27723  11.703   9.115   9.093 -0.2428 -0.0958  0.0711
 7596PW      WM27724  11.888   9.118   9.072 -0.4301 -0.4945  0.1300
 7597PW       W27725   3.901  10.613   2.861 -0.0913 -0.4700  0.0795
 7597PW      WP27726   3.928  10.748   2.885  0.2481 -0.4492 -0.3476
 7597PW      WM27727   4.029  10.556   2.858 -0.1105 -0.5065 -0.1838
 7598PW       W27728  10.769  11.766  12.464 -0.2226 -0.2067 -0.3327
 7598PW      WP27729  10.754  11.857  12.358 -0.3369  0.2308  0.0457
 7598PW      WM27730  10.895  11.826  12.470 -0.2993 -0.0743  0.1340
 7599PW       W27731   4.004   1.193   3.740 -0.0090  0.4381  0.2400
 7599PW      WP27732   4.136   1.158   3.711 -0.0656  0.3410  0.0958
 7599PW      WM27733   3.873   1.174   3.786  0.0718 -0.0065  0.3111
 7600PW       W27734   0.364   4.843  12.540  0.3558  0.1790  0.1566
 7600PW      WP27735   0.402   4.856  12.406 -0.3066 -0.0706 -0.0792
 7600PW      WM27736   0.247   4.918  12.521  0.5254  0.3116 -0.4506
 7601PW       W27737  11.062  10.310  13.046  0.0155 -0.2076  0.1394
 7601PW      WP27738  11.079  10.406  13.147  0.2406 -0.3786  0.2668
 7601PW      WM27739  11.192  10.268  13.018 -0.0463  0.0036 -0.5558
 7602PW       W27740  10.490   3.157   8.190 -0.3834  0.7885 -0.0408
 7602PW      WP27741  10.528   3.125   8.321 -0.4217  0.2099 -0.1595
 7602PW      WM27742  10.474   3.096   8.065  0.5017  0.0439  0.1545
 7603PW       W27743   6.250   2.341   9.321  0.3087  0.0737  0.2244
 7603PW      WP27744   6.388   2.326   9.301  0.2662  0.0676 -0.0855
 7603PW      WM27745   6.110   2.340   9.322  0.2957  0.3060 -0.2104
 7604PW       W27746  11.162   6.020   0.327 -0.1533 -0.1571  0.0883
 7604PW      WP27747  11.136   6.141   0.260  0.3147 -0.1059 -0.0170
 7604PW      WM27748  11.283   5.952   0.313  0.0207  0.1894 -0.1636
 7605PW       W27749   3.681   5.648   1.322 -0.2087 -0.7493 -0.0097
 7605PW      WP27750   3.793   5.563   1.318 -0.0446 -0.5440  0.1012
 7605PW      WM27751   3.576   5.712   1.256  0.2880  0.4251  0.2219
 7606PW       W27752   2.802   9.764  11.745  0.4536 -0.0179  0.1412
 7606PW      WP27753   2.736   9.856  11.827 -0.0734 -0.1010 -0.1651
 7606PW      WM27754   2.940   9.781  11.732  0.4194  0.2457  0.0938
 7607PW       W27755   9.844   8.785   0.243  0.0603 -0.0461  0.0714
 7607PW      WP27756   9.864   8.853   0.122 -0.0262  0.2139  0.2009
 7607PW      WM27757   9.722   8.718   0.222  0.2501 -0.4758  0.2785
 7608PW       W27758   7.944   0.314  10.670  0.2817 -0.0558  0.1243
 7608PW      WP27759   8.039   0.229  10.611 -0.1564 -0.7614  0.3641
 7608PW      WM27760   7.878   0.267  10.784 -0.1177 -0.0253 -0.0863
 7609PW       W27761   9.938   6.293   3.496  0.2429 -0.5785 -0.0952
 7609PW      WP27762  10.005   6.224   3.598  0.4254 -0.1151  0.1110
 7609PW      WM27763  10.041   6.371   3.443 -0.2015  0.0135 -0.1407
 7610PW       W27764  10.548   6.341   8.354  0.1379 -0.1379  0.3488
 7610PW      WP27765  10.500   6.209   8.348  0.1100 -0.1183  0.0378
 7610PW      WM27766  10.462   6.428   8.286 -0.0410 -0.4258  0.1906
 7611PW       W27767   7.472   1.121  10.023  0.2695 -0.0257 -0.2384
 7611PW      WP27768   7.551   1.009   9.993  0.0356 -0.1636 -0.3632
 7611PW      WM27769   7.388   1.092   9.915 -0.2651  0.2102  0.0903
 7612PW       W27770  11.521  12.123  10.773 -0.1224  0.2618 -0.0449
 7612PW      WP27771  11.511  12.004  10.846 -0.0575  0.1967 -0.1418
 7612PW      WM27772  11.588  12.204  10.866 -0.3053  0.0544  0.2762
 7613PW       W27773   3.501   8.527   0.684 -0.1413  0.3546 -0.0095
 7613PW      WP27774   3.513   8.637   0.599 -0.1588  0.0819 -0.3804
 7613PW      WM27775   3.546   8.438   0.783 -0.2839 -0.0277 -0.2736
 7614PW       W27776   4.439   7.270  11.882 -0.1125  0.1925  0.3313
 7614PW      WP27777   4.577   7.264  11.905 -0.0182  0.0982 -0.2009
 7614PW      WM27778   4.377   7.157  11.828  0.1106  0.4608 -0.5674
 7615PW       W27779  12.010   9.348   5.181  0.1432  0.1034 -0.1612
 7615PW      WP27780  12.149   9.342   5.163  0.1144  0.4102 -0.5797
 7615PW      WM27781  11.938   9.429   5.092 -0.1364 -0.4287 -0.4386
 7616PW       W27782   4.514   5.323   2.530  0.0111  0.2948 -0.1062
 7616PW      WP27783   4.446   5.243   2.437 -0.1720  0.0691  0.2157
 7616PW      WM27784   4.469   5.395   2.641 -0.2420 -0.4169  0.2792
 7617PW       W27785  11.956   8.866   5.042  0.0736  0.0284 -0.3086
 7617PW      WP27786  11.825   8.904   5.010 -0.0950 -0.0250  0.2592
 7617PW      WM27787  12.079   8.849   4.977  0.1158 -0.3831 -0.1373
 7618PW       W27788  11.651   1.731   9.136 -0.3335  0.2817 -0.1331
 7618PW      WP27789  11.538   1.704   9.058 -0.2751  0.0892 -0.1549
 7618PW      WM27790  11.713   1.606   9.151 -0.3937  0.2655 -0.0181
 7619PW       W27791   4.904   8.307   3.398  0.3231  0.1201 -0.4086
 7619PW      WP27792   4.981   8.423   3.412 -0.0983  0.3879 -0.1738
 7619PW      WM27793   4.777   8.360   3.424  0.2206 -0.1532 -0.3350
 7620PW       W27794   7.511   3.109   2.919 -0.0225  0.0839  0.3365
 7620PW      WP27795   7.404   3.177   2.859 -0.0300 -0.1753  0.0432
 7620PW      WM27796   7.614   3.015   2.926 -0.2330 -0.1661  0.1660
 7621PW       W27797   6.964   1.720  12.915  0.4466  0.1380 -0.0562
 7621PW      WP27798   7.010   1.591  12.941 -0.3286 -0.2436 -0.4101
 7621PW      WM27799   6.874   1.753  12.813 -0.1317 -0.0390  0.3694
 7622PW       W27800   4.439  10.095  12.566  0.2622  0.1556  0.1904
 7622PW      WP27801   4.507  10.020  12.470 -0.0212 -0.0921  0.1754
 7622PW      WM27802   4.326  10.163  12.519  0.0321 -0.3024  0.0552
 7623PW       W27803   4.325   8.952  10.184  0.4134 -0.1962 -0.1877
 7623PW      WP27804   4.217   8.864  10.177  0.3704 -0.1748  0.1423
 7623PW      WM27805   4.362   8.841  10.106  0.2270 -0.1020 -0.4194
 7624PW       W27806  10.596   3.926   1.849 -0.4229  0.1382  0.0019
 7624PW      WP27807  10.728   3.917   1.893 -0.2966 -0.4755 -0.4334
 7624PW      WM27808  10.518   3.892   1.738 -0.6900 -0.1264  0.2571
 7625PW       W27809   4.873   4.469   4.664 -0.0560  0.5147 -0.2498
 7625PW      WP27810   4.951   4.500   4.777 -0.1216  0.3777 -0.1656
 7625PW      WM27811   4.952   4.553   4.585  0.1957  0.4443 -0.0800
 7626PW       W27812   4.695  10.178   0.996 -0.3949 -0.2294 -0.2041
 7626PW      WP27813   4.684  10.306   0.941 -0.0099 -0.0588  0.0873
 7626PW      WM27814   4.835  10.174   0.999 -0.3879 -0.0344  0.3478
 7627PW       W27815   9.156   8.559   0.388  0.0027 -0.2006  0.2463
 7627PW      WP27816   9.284   8.509   0.412  0.1050 -0.3448 -0.5003
 7627PW      WM27817   9.168   8.438   0.458  0.3663 -0.2753  0.0641
 7628PW       W27818   4.080   7.945  12.451  0.4722 -0.0686  0.0868
 7628PW      WP27819   4.164   8.017  12.365  0.3427 -0.3159 -0.2594
 7628PW      WM27820   4.101   7.958  12.589 -0.2514  0.0058  0.2134
 7629PW       W27821  11.127  12.020  12.216  0.1308 -0.0393  0.0574
 7629PW      WP27822  11.161  12.020  12.080  0.0525  0.2115  0.0351
 7629PW      WM27823  11.229  11.988  12.307 -0.1671 -0.3577  0.2903
 7630PW       W27824   8.408   6.369   9.708 -0.2079  0.2322 -0.3947
 7630PW      WP27825   8.533   6.311   9.683 -0.1091  0.3233 -0.1271
 7630PW      WM27826   8.273   6.343   9.683 -0.3221 -0.2061  0.4922
 7631PW       W27827   4.964   9.611   4.588  0.0437 -0.1750 -0.2304
 7631PW      WP27828   4.873   9.613   4.694  0.2878 -0.1930 -0.0168
 7631PW      WM27829   5.072   9.697   4.613 -0.1427  0.0353 -0.1354
 7632PW       W27830   3.417   1.500   0.713  0.1972  0.2885  0.0079
 7632PW      WP27831   3.346   1.572   0.810  0.0917  0.0138  0.1397
 7632PW      WM27832   3.499   1.479   0.601  0.0347 -0.0691 -0.0529
 7633PW       W27833   5.633   9.297   4.519 -0.2513  0.0566  0.3999
 7633PW      WP27834   5.531   9.299   4.422  0.4150  0.1288 -0.3478
 7633PW      WM27835   5.632   9.158   4.501 -0.2723  0.1206 -0.2110
 7634PW       W27836   1.068   8.129   5.031  0.0178  0.0632  0.1424
 7634PW      WP27837   1.004   8.253   5.026 -0.2179 -0.0686 -0.3165
 7634PW      WM27838   1.139   8.065   4.929 -0.0866  0.3685 -0.1276
 7635PW       W27839   8.145   7.376   0.018  0.3220 -0.1226  0.2223
 7635PW      WP27840   8.112   7.241   0.031  0.0335 -0.1057 -0.2360
 7635PW      WM27841   8.277   7.399   0.059  0.1734  0.4488  0.4319
 7636PW       W27842  10.238   1.218  12.545  0.0368 -0.0080 -0.0085
 7636PW      WP27843  10.269   1.345  12.593 -0.0949  0.0211 -0.0003
 7636PW      WM27844  10.106   1.176  12.563  0.0715  0.0003  0.2789
 7637PW       W27845   0.899   3.109  12.800 -0.5827 -0.0057 -0.0637
 7637PW      WP27846   0.959   3.157  12.683 -0.5929  0.3401  0.0688
 7637PW      WM27847   0.883   2.974  12.765  0.3203 -0.2072  0.1613
 7638PW       W27848   0.894   7.674   3.108 -0.8370  0.2947  0.2090
 7638PW      WP27849   0.964   7.553   3.109 -0.2715  0.6079  0.2625
 7638PW      WM27850   0.852   7.737   2.990 -0.1546  0.2261 -0.0942
 7639PW       W27851   6.402   0.836   5.012  0.2655 -0.3239 -0.1616
 7639PW      WP27852   6.428   0.751   4.904  0.1514 -0.4612 -0.0833
 7639PW      WM27853   6.487   0.930   5.071 -0.3656  0.4199 -0.3520
 7640PW       W27854  10.028   5.802  13.104 -0.3465 -0.3183  0.0596
 7640PW      WP27855   9.903   5.843  13.152 -0.3559  0.1082 -0.2870
 7640PW      WM27856  10.137   5.728  13.149  0.0098  0.1284 -0.0274
 7641PW       W27857   7.186   6.127  10.514  0.0541  0.0172  0.5158
 7641PW      WP27858   7.244   6.130  10.641 -0.4008 -0.0024  0.7335
 7641PW      WM27859   7.055   6.172  10.536  0.0802  0.1209  0.4629
 7642PW       W27860   6.070   1.839  11.937 -0.3068  0.3648 -0.0248
 7642PW      WP27861   6.101   1.782  12.061  0.0759  0.0174 -0.2670
 7642PW      WM27862   5.951   1.767  11.960  0.0869 -0.2853  0.1135
 7643PW       W27863   2.379   5.426   0.017 -0.4225  0.2839  0.0141
 7643PW      WP27864   2.317   5.330   0.099 -0.3428  0.0326 -0.2119
 7643PW      WM27865   2.366   5.372  -0.112  0.3135  0.7272 -0.2735
 7644PW       W27866  11.340   3.556   3.373 -0.2431  0.7512 -0.0156
 7644PW      WP27867  11.452   3.557   3.290  0.0043 -0.1401  0.2546
 7644PW      WM27868  11.297   3.534   3.505  0.5138  0.2774  0.1817
 7645PW       W27869   4.160   4.027   1.749 -0.0574  0.0418  0.0597
 7645PW      WP27870   4.056   3.932   1.750  0.3058 -0.3845 -0.3749
 7645PW      WM27871   4.203   3.921   1.830  0.1521 -0.1438 -0.2866
 7646PW       W27872   4.917   5.937   4.099  0.3241 -0.1387  0.2749
 7646PW      WP27873   4.806   5.858   4.129 -0.3624  0.6111 -0.0713
 7646PW      WM27874   5.045   5.936   4.041  0.2575  0.0682  0.1147
 7647PW       W27875   9.566   5.377   0.146 -0.2652 -0.1671 -0.0167
 7647PW      WP27876   9.494   5.278   0.079  0.0204 -0.1398 -0.3796
 7647PW      WM27877   9.672   5.428   0.222 -0.1299  0.2011 -0.4312
 7648PW       W27878   0.883   6.162   1.957  0.1131  0.1228  0.0951
 7648PW      WP27879   0.822   6.040   1.987  0.0595  0.1868  0.2489
 7648PW      WM27880   0.952   6.066   1.882  0.6096  0.1442  0.4997
 7649PW       W27881   2.029   4.280  10.119 -0.1176  0.2743  0.1922
 7649PW      WP27882   2.168   4.283  10.109 -0.0792 -0.1081  0.5093
 7649PW      WM27883   1.919   4.265  10.204 -0.1710  1.2492  0.3563
 7650PW       W27884   6.017   0.805   8.626 -0.1339  0.4448  0.4932
 7650PW      WP27885   6.115   0.878   8.558 -0.2027 -0.1897 -0.3647
 7650PW      WM27886   5.922   0.897   8.672 -0.4324  0.2589  0.2695
 7651PW       W27887   6.929   2.469   4.330  0.1694  0.0868  0.2219
 7651PW      WP27888   6.900   2.580   4.250 -0.2010 -0.1972 -0.0534
 7651PW      WM27889   6.884   2.355   4.397  0.1300 -0.3395 -0.4838
 7652PW       W27890   6.468   8.650   2.566 -0.4088 -0.3154  0.1906
 7652PW      WP27891   6.388   8.573   2.480 -0.3953 -0.0722 -0.0459
 7652PW      WM27892   6.574   8.570   2.610  0.1971  0.1559 -0.3224
 7653PW       W27893  11.479   2.016  13.133 -0.0386  0.0714  0.1414
 7653PW      WP27894  11.414   2.129  13.184 -0.1265 -0.0110  0.2138
 7653PW      WM27895  11.530   1.890  13.165  0.0881 -0.0047 -0.3269
 7654PW       W27896   0.788   2.962   8.171 -0.0660  0.5027 -0.2713
 7654PW      WP27897   0.898   3.044   8.198 -0.0547  0.3790  0.0839
 7654PW      WM27898   0.737   2.873   8.075 -0.0279 -0.1380  0.2651
 7655PW       W27899   6.387  10.525  13.139  0.2884 -0.2916 -0.3682
 7655PW      WP27900   6.484  10.610  13.084  0.1716 -0.2040 -0.4412
 7655PW      WM27901   6.378  10.407  13.214  0.3118 -0.2188 -0.2497
 7656PW       W27902   8.438   1.254  10.672  0.0585  0.7277  0.2576
 7656PW      WP27903   8.420   1.357  10.580 -0.0083 -0.1112 -0.7597
 7656PW      WM27904   8.559   1.244  10.602  0.1263 -0.6155  0.4401
 7657PW       W27905   4.952   1.647  13.158  0.0326  0.0681  0.1781
 7657PW      WP27906   5.044   1.560  13.098  0.0737 -0.2582  0.6775
 7657PW      WM27907   4.910   1.630  13.290  0.2874  0.3996  0.3076
 7658PW       W27908   2.905   5.554   2.797  0.1535  0.2121 -0.1331
 7658PW      WP27909   2.932   5.428   2.741  0.0677  0.0196  0.2437
 7658PW      WM27910   2.904   5.522   2.933  0.2638  0.1400 -0.1489
 7659PW       W27911   8.492   1.845   2.624  0.2463 -0.2219  0.0110
 7659PW      WP27912   8.617   1.905   2.606  0.4005 -0.5452 -0.0394
 7659PW      WM27913   8.366   1.905   2.638  0.2330 -0.2075 -0.1640
 7660PW       W27914  10.908   6.915   0.085  0.1672 -0.2429  0.0058
 7660PW      WP27915  10.875   6.836   0.194 -0.1122 -0.0810  0.0425
 7660PW      WM27916  10.997   7.022   0.067 -0.0822  0.0262  0.3097
 7661PW       W27917   0.583  11.013   1.497 -0.0403  0.0571  0.0509
 7661PW      WP27918   0.469  11.032   1.420 -0.0723  0.0234  0.0898
 7661PW      WM27919   0.512  11.001   1.617  0.1693 -0.1276  0.1611
 7662PW       W27920   8.631   0.150  10.569  0.0966 -0.0435  0.0259
 7662PW      WP27921   8.604   0.177  10.435  0.2939  0.2854  0.0480
 7662PW      WM27922   8.567   0.206  10.680  0.5345 -0.0306  0.2839
 7663PW       W27923   2.192   0.361  11.118  0.1174  0.0685  0.2851
 7663PW      WP27924   2.061   0.317  11.142  0.1278 -0.0627  0.1183
 7663PW      WM27925   2.295   0.284  11.173  0.3174 -0.0636 -0.2398
 7664PW       W27926  11.399   6.579   3.943  0.1833 -0.2045  0.0667
 7664PW      WP27927  11.449   6.496   3.841 -0.5182 -0.1649 -0.3371
 7664PW      WM27928  11.260   6.584   3.931  0.2190 -0.1976 -0.4879
 7665PW       W27929   6.684   8.362   0.644 -0.0110 -0.1076 -0.0177
 7665PW      WP27930   6.704   8.347   0.506 -0.3929 -0.3273 -0.0561
 7665PW      WM27931   6.802   8.419   0.692 -0.0252  0.1369 -0.2604
 7666PW       W27932   0.734   9.480   0.618 -0.5000  0.0392  0.1300
 7666PW      WP27933   0.714   9.568   0.725  0.3017  0.2824  0.1084
 7666PW      WM27934   0.701   9.356   0.674 -0.0945  0.1366  0.6177
 7667PW       W27935  11.584   1.481  12.482 -0.2243 -0.0631  0.2488
 7667PW      WP27936  11.598   1.582  12.578 -0.4440  0.2882 -0.0754
 7667PW      WM27937  11.502   1.451  12.372 -0.1036  0.0957  0.1125
 7668PW       W27938  10.895   3.669   2.891 -0.0746  0.1562  0.1659
 7668PW      WP27939  11.019   3.635   2.834  0.0522  0.3837  0.3016
 7668PW      WM27940  10.896   3.674   3.030  0.2582  0.0833  0.1712
 7669PW       W27941   4.011   0.523   2.764  0.4135 -0.2504 -0.2834
 7669PW      WP27942   3.911   0.506   2.860  0.6420  0.5371  0.1406
 7669PW      WM27943   4.000   0.416   2.675 -0.1611 -0.7255  0.3128
 7670PW       W27944   5.211   6.330   3.110  0.0065 -0.1106  0.0672
 7670PW      WP27945   5.251   6.252   3.001 -0.3259  0.0738 -0.1974
 7670PW      WM27946   5.141   6.448   3.079 -0.0687 -0.0885  0.3097
 7671PW       W27947   0.941   4.388   8.636 -0.0176 -0.3920 -0.0598
 7671PW      WP27948   0.952   4.365   8.498  0.0460 -0.5901 -0.0244
 7671PW      WM27949   0.880   4.377   8.761 -0.5991  0.0588 -0.2817
 7672PW       W27950   4.133   6.951  12.898  0.7220 -0.0146  0.0834
 7672PW      WP27951   4.129   6.899  12.768 -0.3413  0.1044  0.0218
 7672PW      WM27952   4.263   7.003  12.897  0.5883  0.3373  0.0944
 7673PW       W27953   2.801   4.999  10.470  0.2928 -0.2709  0.2192
 7673PW      WP27954   2.786   5.095  10.571 -0.3601  0.0582 -0.1584
 7673PW      WM27955   2.704   4.915  10.525 -0.1751 -0.0365 -0.2109
 7674PW       W27956   9.670   2.245   2.232 -0.4609 -0.1772  0.2541
 7674PW      WP27957   9.646   2.366   2.165  0.1198 -0.0609  0.2247
 7674PW      WM27958   9.795   2.301   2.200 -0.5490 -0.3284 -0.4174
 7675PW       W27959   8.056   7.101   3.031  0.0086 -0.1669 -0.4122
 7675PW      WP27960   8.176   7.109   2.961  0.1253 -0.1104 -0.2115
 7675PW      WM27961   7.921   7.066   3.021  0.0416 -0.2991 -0.4031
 7676PW       W27962   3.807   1.860   2.095  0.2231  0.0979 -0.4114
 7676PW      WP27963   3.777   1.961   2.003  0.3015  0.3947 -0.1197
 7676PW      WM27964   3.877   1.919   2.201  0.2179  0.0146 -0.3608
 7677PW       W27965   5.382   4.253   3.442 -0.3381  0.5374 -0.0733
 7677PW      WP27966   5.273   4.177   3.486 -0.1704  0.2901 -0.0766
 7677PW      WM27967   5.354   4.321   3.562 -0.3899 -0.2211  0.3774
 7678PW       W27968   7.880   2.067  10.512  0.2072 -0.0968 -0.7369
 7678PW      WP27969   7.877   1.934  10.468 -0.2547 -0.2956 -0.1658
 7678PW      WM27970   7.986   2.153  10.482  0.2733 -0.0115 -0.2986
 7679PW       W27971   5.580   1.595   1.397 -0.4518  0.1423  0.0221
 7679PW      WP27972   5.684   1.606   1.490 -0.4393 -0.1587  0.0499
 7679PW      WM27973   5.496   1.517   1.478 -0.2312 -0.1978 -0.0678
 7680PW       W27974   3.212   1.172  13.342 -0.1815  0.6155 -0.2247
 7680PW      WP27975   3.196   1.044  13.286 -0.3314  0.5553 -0.0497
 7680PW      WM27976   3.247   1.100  13.457 -0.1331  0.5978 -0.2501
 7681PW       W27977   1.609   7.237   9.991 -0.0637  0.1581 -0.1998
 7681PW      WP27978   1.723   7.184   9.929  0.0689 -0.0058  0.1681
 7681PW      WM27979   1.630   7.130  10.079  0.2118  0.3268 -0.0529
 7682PW       W27980   5.282   3.828  11.813  0.0120  0.8066  0.1006
 7682PW      WP27981   5.178   3.784  11.729  0.1692 -0.1969  0.3676
 7682PW      WM27982   5.230   3.870  11.936 -0.4740 -0.4480  0.3928
 7683PW       W27983   5.027   1.441   3.588 -0.1329 -0.4088 -0.0825
 7683PW      WP27984   5.146   1.442   3.515 -0.0744  0.2604 -0.0104
 7683PW      WM27985   4.985   1.349   3.685 -0.4380 -0.0894  0.1000
 7684PW       W27986  12.030   6.155  12.752 -0.8444  0.3064  0.1800
 7684PW      WP27987  11.980   6.181  12.623 -0.3626  0.0837 -0.0629
 7684PW      WM27988  12.034   6.122  12.888  0.0167  0.4855  0.2283
 7685PW       W27989   8.650  11.681   4.538  0.1509 -0.0935  0.3138
 7685PW      WP27990   8.621  11.818   4.551  0.3813  0.0110 -0.1625
 7685PW      WM27991   8.559  11.652   4.640  0.1332 -0.1663  0.2775
 7686PW       W27992   8.414  10.821   2.539 -0.2977  0.1779 -0.4230
 7686PW      WP27993   8.543  10.821   2.593 -0.4934  0.1850  0.0696
 7686PW      WM27994   8.450  10.754   2.422  0.2979 -0.0083 -0.1527
 7687PW       W27995   1.852   9.924  10.555 -0.1630  0.2610 -0.1693
 7687PW      WP27996   1.734   9.918  10.480 -0.1764  0.5026 -0.1705
 7687PW      WM27997   1.936  10.023  10.607  0.3017 -0.0307 -0.3285
 7688PW       W27998   1.601   0.987   5.368  0.2430 -0.3850  0.1763
 7688PW      WP27999   1.533   0.876   5.420 -0.4385 -0.0933 -0.0253
 7688PW      WM28000   1.728   1.017   5.320 -0.0055 -0.1974 -0.4068
 7689PW       W28001   5.120   4.790   0.054  0.3561  0.0493  0.0769
 7689PW      WP28002   5.179   4.916   0.074 -0.0226  0.3418 -0.5244
 7689PW      WM28003   5.125   4.676   0.135  0.4049 -0.2024 -0.2685
 7690PW       W28004  11.668  11.495   1.671  0.4153  0.3219  0.2214
 7690PW      WP28005  11.799  11.462   1.710  0.4054  0.4749  0.3898
 7690PW      WM28006  11.637  11.432   1.792  0.6289  0.5384  0.3924
 7691PW       W28007   6.204  12.018   3.938 -0.3740  0.2573 -0.3399
 7691PW      WP28008   6.167  11.968   4.063  0.1216  0.2525 -0.1834
 7691PW      WM28009   6.331  12.034   3.880 -0.1489 -0.1560  0.0026
 7692PW       W28010  10.492   8.201   8.944 -0.3899 -0.2368 -0.2180
 7692PW      WP28011  10.494   8.306   8.851 -0.0235  0.1395  0.1901
 7692PW      WM28012  10.465   8.172   9.078 -0.1262  0.6179  0.0528
 7693PW       W28013   9.288   0.252   0.265  0.3643  0.1079  0.1842
 7693PW      WP28014   9.321   0.327   0.152 -0.4859 -0.5115 -0.5435
 7693PW      WM28015   9.351   0.280   0.387  0.1027 -0.2105  0.4032
 7694PW       W28016   0.526   2.853   4.585  0.1612 -0.1416  0.5519
 7694PW      WP28017   0.495   2.908   4.460 -0.2224 -0.3931  0.5284
 7694PW      WM28018   0.522   2.896   4.719 -0.3116 -0.1871  0.5590
 7695PW       W28019   4.508   0.072   4.904 -0.0094  0.3846  0.2455
 7695PW      WP28020   4.572   0.166   4.987  0.4024  0.2741  0.0646
 7695PW      WM28021   4.503  -0.018   5.011  0.1051 -0.0171 -0.0792
 7696PW       W28022   6.015   4.819   1.385 -0.1023  0.0349  0.2110
 7696PW      WP28023   6.002   4.944   1.322 -0.7169  0.1521  0.5342
 7696PW      WM28024   6.136   4.881   1.418  0.0398  0.1560 -0.4488
 7697PW       W28025   1.699   0.333   4.768 -0.0923  0.3273  0.1756
 7697PW      WP28026   1.626   0.284   4.658 -0.3583 -0.1600  0.5523
 7697PW      WM28027   1.685   0.368   4.903 -0.6734 -0.1308  0.2577
 7698PW       W28028  12.101   2.566  12.959  0.5279  0.0395 -0.0826
 7698PW      WP28029  12.032   2.676  12.906  0.5000  0.1086  0.0914
 7698PW      WM28030  12.196   2.610  13.051  0.2733  0.0735  0.1721
 7699PW       W28031   9.563  11.351   4.711 -0.0228  0.3544 -0.0103
 7699PW      WP28032   9.558  11.460   4.623 -0.0665  0.0508 -0.3986
 7699PW      WM28033   9.576  11.224   4.653  0.1611  0.1640  0.4207
 7700PW       W28034  11.185   3.370   8.667 -0.5622 -0.0014  0.1572
 7700PW      WP28035  11.144   3.483   8.738  0.2470  0.0104  0.6713
 7700PW      WM28036  11.322   3.341   8.677 -0.5164  0.1485 -0.0008
 7701PW       W28037  11.433   3.082   9.041 -0.2502 -0.2766 -0.0960
 7701PW      WP28038  11.332   3.124   9.129 -0.0356 -0.1304  0.0893
 7701PW      WM28039  11.483   3.085   8.910 -0.1273 -0.1551 -0.0479
 7702PW       W28040   9.725   8.578   9.364 -0.6139 -0.5482 -0.0318
 7702PW      WP28041   9.665   8.679   9.441  0.0210 -0.5133  0.4582
 7702PW      WM28042   9.780   8.631   9.247  0.0628 -0.1545  0.4301
 7703PW       W28043   0.175   9.625  12.147  0.0654 -0.2655 -0.0744
 7703PW      WP28044   0.068   9.644  12.235 -0.0945  0.2147 -0.3523
 7703PW      WM28045   0.099   9.682  12.044  0.1844 -0.3304 -0.2004
 7704PW       W28046   8.894   4.654  10.194 -0.0807  0.2532  0.2867
 7704PW      WP28047   9.032   4.665  10.211 -0.0584  0.3262  0.0811
 7704PW      WM28048   8.955   4.769  10.143  0.0515 -0.1512 -0.5673
 7705PW       W28049   0.225   1.334   3.171  0.4632 -0.1326 -0.2459
 7705PW      WP28050   0.140   1.358   3.062  0.2179  0.5400  0.0673
 7705PW      WM28051   0.147   1.304   3.283  0.0910  0.2614 -0.3840
 7706PW       W28052   1.511   8.621   1.391 -0.1129 -0.4816  0.0537
 7706PW      WP28053   1.565   8.615   1.520  0.3508  0.0193 -0.1008
 7706PW      WM28054   1.425   8.730   1.405  0.4367 -0.0131 -0.0417
 7707PW       W28055   4.840   8.564  10.770 -0.4392 -0.0049  0.2113
 7707PW      WP28056   4.948   8.491  10.719 -0.1273  0.4779  0.1559
 7707PW      WM28057   4.894   8.692  10.784 -0.4996  0.0455 -0.0027
 7708PW       W28058   5.680   2.575   1.169  0.0099 -0.0366  0.4889
 7708PW      WP28059   5.671   2.707   1.125 -0.0985 -0.1352  0.2065
 7708PW      WM28060   5.566   2.541   1.095  0.5586 -0.3807 -0.2490
 7709PW       W28061   6.489   4.052   2.163  0.2138 -0.0773  0.1593
 7709PW      WP28062   6.478   3.964   2.272  0.1380 -0.1320  0.1076
 7709PW      WM28063   6.415   4.158   2.111  0.0775 -0.3442 -0.2087
 7710PW       W28064   2.770   3.367   0.155  0.4490 -0.3602 -0.0067
 7710PW      WP28065   2.731   3.328   0.284 -0.0727 -0.0906 -0.0695
 7710PW      WM28066   2.714   3.327   0.034 -0.3033  0.5099 -0.0038
 7711PW       W28067   1.115  10.521   4.943 -0.0826 -0.0076  0.2079
 7711PW      WP28068   1.012  10.427   4.950  0.1268 -0.2770 -0.1717
 7711PW      WM28069   1.184  10.640   4.918  0.0688 -0.1631 -0.1441
 7712PW       W28070   6.266   1.433   2.639 -0.3604 -0.2309 -0.5371
 7712PW      WP28071   6.243   1.566   2.678 -0.0540 -0.3863  0.2736
 7712PW      WM28072   6.396   1.384   2.620  0.0177  0.6183 -0.3770
 7713PW       W28073   7.277  10.269   3.476 -0.4084  0.1009  0.3134
 7713PW      WP28074   7.350  10.150   3.479 -0.3062  0.1354 -0.2811
 7713PW      WM28075   7.187  10.286   3.370  0.1932 -0.1418 -0.2685
 7714PW       W28076  10.201  11.538   9.427  0.4078 -0.4007 -0.1289
 7714PW      WP28077  10.281  11.510   9.538  0.0176 -0.1653  0.2272
 7714PW      WM28078  10.111  11.578   9.527  0.1144 -0.4713 -0.3593
 7715PW       W28079   1.656   8.698   4.702  0.0263  0.2434 -0.0343
 7715PW      WP28080   1.581   8.587   4.660  0.5107 -0.1922  0.1980
 7715PW      WM28081   1.779   8.700   4.769  0.1536  0.0034 -0.2488
 7716PW       W28082   8.865   4.823   9.599  0.0076 -0.0675  0.3038
 7716PW      WP28083   9.000   4.791   9.588  0.1130  0.4611 -0.1837
 7716PW      WM28084   8.768   4.812   9.699 -0.2094 -0.2035  0.0860
 7717PW       W28085   3.361   5.666   3.861  0.1324  0.0486  0.0582
 7717PW      WP28086   3.340   5.802   3.886  0.2759  0.0271  0.3108
 7717PW      WM28087   3.476   5.617   3.925  0.3259  0.0477 -0.2741
 7718PW       W28088   9.889   6.682  12.580  0.1484  0.1531 -0.4391
 7718PW      WP28089   9.810   6.641  12.473 -0.3254  0.2967 -0.1580
 7718PW      WM28090   9.970   6.573  12.616 -0.1822 -0.0211 -0.2001
 7719PW       W28091   5.652  11.672   0.565  0.1101  0.1251  0.1398
 7719PW      WP28092   5.539  11.732   0.621 -0.2465  0.0075 -0.4106
 7719PW      WM28093   5.584  11.591   0.473  0.2106  0.2482 -0.0481
 7720PW       W28094   8.665   4.014  11.683 -0.2876  0.4070  0.0062
 7720PW      WP28095   8.744   4.116  11.738 -0.3384  0.4766 -0.0483
 7720PW      WM28096   8.595   3.902  11.728 -0.0774  0.1816 -0.2144
 7721PW       W28097  12.136   9.725   4.347  0.2143 -0.3294  0.3192
 7721PW      WP28098  12.113   9.621   4.256 -0.0249 -0.2377  0.2710
 7721PW      WM28099  12.087   9.827   4.430 -0.3780 -0.0468 -0.3222
 7722PW       W28100   4.815   9.703   2.942 -0.5278 -0.2720 -0.0227
 7722PW      WP28101   4.690   9.732   2.886 -0.4165 -0.7141 -0.5434
 7722PW      WM28102   4.852   9.584   2.879  0.0642 -0.2175  0.1895
 7723PW       W28103   5.329   5.546   1.753 -0.1782  0.0345 -0.1473
 7723PW      WP28104   5.310   5.416   1.802  0.6471  0.0268  0.2328
 7723PW      WM28105   5.237   5.507   1.654 -0.3598  0.2238 -0.0573
 7724PW       W28106  11.402   9.252   4.504 -0.2110  0.1462 -0.3212
 7724PW      WP28107  11.456   9.172   4.606  0.2317  0.1891 -0.5101
 7724PW      WM28108  11.414   9.391   4.510 -0.4482  0.1564  0.1372
 7725PW       W28109   6.548   4.420   4.545  0.2595  0.4074  0.0971
 7725PW      WP28110   6.604   4.311   4.613 -0.4584 -0.1245 -0.1044
 7725PW      WM28111   6.660   4.495   4.583  0.3431  0.3559 -0.0409
 7726PW       W28112   9.436   9.153   8.736  0.0447 -0.2806 -0.1142
 7726PW      WP28113   9.527   9.064   8.678  0.5506  0.2605 -0.1985
 7726PW      WM28114   9.349   9.260   8.712  0.1567 -0.0126  0.5717
 7727PW       W28115   8.765   0.282   0.423  0.2026 -0.0100 -0.0099
 7727PW      WP28116   8.817   0.408   0.454 -0.1244  0.1094  0.0829
 7727PW      WM28117   8.636   0.271   0.476  0.1810 -0.3599 -0.1222
 7728PW       W28118   1.604   1.843  11.535  0.0255 -0.2513  0.0126
 7728PW      WP28119   1.643   1.734  11.458  0.5562  0.1499 -0.3202
 7728PW      WM28120   1.612   1.966  11.469  0.3789 -0.2291  0.0840
 7729PW       W28121   0.069   0.360   9.452 -0.0109  0.3040 -0.0528
 7729PW      WP28122  -0.010   0.475   9.455 -0.0377  0.2848 -0.0178
 7729PW      WM28123  -0.010   0.292   9.545  0.0437 -0.0285 -0.2426
 7730PW       W28124   8.481   0.996   9.959  0.1273  0.3607 -0.1127
 7730PW      WP28125   8.487   0.942  10.088  0.5257 -0.2648 -0.3690
 7730PW      WM28126   8.405   1.112   9.980 -0.0566  0.2950 -0.3904
 7731PW       W28127   5.217   4.849  11.755  0.4632 -0.0194  0.5818
 7731PW      WP28128   5.096   4.864  11.824  0.1506  0.1483  0.0315
 7731PW      WM28129   5.242   4.737  11.675 -0.7065  0.1223 -0.1038
 7732PW       W28130   5.393   4.772   8.124 -0.0424  0.5512  0.0233
 7732PW      WP28131   5.515   4.793   8.190  0.0299  0.0744  0.0629
 7732PW      WM28132   5.296   4.764   8.224  0.1539 -0.1442  0.1847
 7733PW       W28133  10.499   1.022   3.175  0.0415 -0.2500  0.1259
 7733PW      WP28134  10.463   1.156   3.193 -0.0194 -0.1734 -0.4725
 7733PW      WM28135  10.459   0.905   3.109 -0.4484 -0.1906  0.2990
 7734PW       W28136   6.605   9.385  11.334 -0.0810  0.0239 -0.0065
 7734PW      WP28137   6.478   9.358  11.280  0.0612 -0.3862 -0.1586
 7734PW      WM28138   6.532   9.504  11.327 -0.2855 -0.0785  0.2446
 7735PW       W28139   4.941   7.802   3.096  0.0459  0.2358  0.0438
 7735PW      WP28140   4.989   7.810   2.965  0.0453  0.1401  0.0373
 7735PW      WM28141   4.999   7.675   3.102 -0.3419  0.0549  0.1279
 7736PW       W28142  11.614   6.676   9.890 -0.2445  0.1993  0.2530
 7736PW      WP28143  11.552   6.575   9.963 -0.7891  0.2486 -0.1120
 7736PW      WM28144  11.571   6.687   9.757 -0.1832  0.2530  0.2373
 7737PW       W28145  10.179   2.686   1.721  0.5331  0.0236 -0.2458
 7737PW      WP28146  10.098   2.581   1.676 -0.0814  0.2953  0.1691
 7737PW      WM28147  10.240   2.710   1.844  0.0300 -0.4515  0.1205
 7738PW       W28148   4.604   4.245   1.643  0.5597  0.0869 -0.1724
 7738PW      WP28149   4.605   4.151   1.746  0.4525 -0.0220 -0.2696
 7738PW      WM28150   4.507   4.227   1.543  0.1831  0.1216  0.1757
 7739PW       W28151   8.587   6.139   0.691  0.2538  0.0621 -0.4205
 7739PW      WP28152   8.528   6.070   0.584 -0.1423 -0.0525 -0.1431
 7739PW      WM28153   8.678   6.075   0.776  0.1389  0.2207 -0.1708
 7740PW       W28154   6.098  11.690   0.342 -0.1003 -0.2208 -0.2638
 7740PW      WP28155   6.211  11.755   0.392 -0.2267 -0.3491  0.2137
 7740PW      WM28156   6.032  11.797   0.281  0.3396 -0.0376 -0.4383
 7741PW       W28157   9.969   0.138   1.101 -0.8350 -0.1836  0.2014
 7741PW      WP28158   9.889   0.053   1.023 -0.1411 -0.0699 -0.7262
 7741PW      WM28159  10.058   0.030   1.092 -0.2380  0.2864  0.1215
 7742PW       W28160  11.296   3.717  13.286 -0.0130 -0.3324 -0.4265
 7742PW      WP28161  11.410   3.784  13.331 -0.3224 -0.1858  0.1905
 7742PW      WM28162  11.270   3.582  13.315 -0.4272 -0.1919 -0.0922
 7743PW       W28163   2.343  10.102  10.827  0.0139 -0.0931 -0.1748
 7743PW      WP28164   2.325  10.158  10.700  0.2810  0.3294 -0.0351
 7743PW      WM28165   2.477  10.119  10.793 -0.0067 -0.3548 -0.4061
 7744PW       W28166   0.351   2.109  12.232 -0.0188 -0.4934  0.0297
 7744PW      WP28167   0.393   1.997  12.158  0.3157 -0.1245 -0.3617
 7744PW      WM28168   0.365   2.177  12.353 -0.5245  0.0143 -0.1741
 7745PW       W28169   0.539   3.488  10.734 -0.3512 -0.0524 -0.5152
 7745PW      WP28170   0.449   3.595  10.733 -0.2514  0.0925  0.4878
 7745PW      WM28171   0.533   3.474  10.873  0.1634  0.4487 -0.4220
 7746PW       W28172   1.741   0.776   9.753  0.2305  0.1178  0.3439
 7746PW      WP28173   1.709   0.665   9.675  0.5677  0.2309  0.0335
 7746PW      WM28174   1.862   0.801   9.689  0.2062  0.2172  0.3351
 7747PW       W28175   3.617  11.302   0.109 -0.5034  0.1135 -0.2225
 7747PW      WP28176   3.602  11.228   0.227  0.0093  0.0103 -0.2108
 7747PW      WM28177   3.732  11.366   0.060  0.1124 -0.2016  0.6793
 7748PW       W28178   5.027  10.038   9.512 -0.3454  0.3339  0.1384
 7748PW      WP28179   4.993  10.036   9.648  0.5994  0.0330  0.4118
 7748PW      WM28180   5.008   9.918   9.441  0.0949  0.3322  0.0061
 7749PW       W28181   3.243   4.458   8.657 -0.4222 -0.1750 -0.1987
 7749PW      WP28182   3.319   4.571   8.627  0.1309 -0.4791 -0.0068
 7749PW      WM28183   3.247   4.318   8.665  0.2904 -0.1555  0.1682
 7750PW       W28184  11.943   3.742   9.268  0.1495 -0.4303  0.4956
 7750PW      WP28185  11.847   3.721   9.369 -0.2039  0.3314  0.3551
 7750PW      WM28186  11.876   3.662   9.175  0.1783 -0.0796  0.1599
 7751PW       W28187   0.384  10.503  10.948  0.4426 -0.0500  0.0242
 7751PW      WP28188   0.279  10.540  11.033 -0.3400 -0.3473 -0.7335
 7751PW      WM28189   0.460  10.479  11.062  0.0597  0.2152  0.3490
 7752PW       W28190   5.938   8.534   9.136  0.0121 -0.0376  0.7699
 7752PW      WP28191   5.988   8.650   9.196 -0.2034  0.5330 -0.0620
 7752PW      WM28192   5.941   8.394   9.131 -0.0375 -0.0431 -0.2888
 7753PW       W28193   9.261   8.362   3.385 -0.3752  0.2933 -0.3352
 7753PW      WP28194   9.192   8.431   3.485 -0.1688 -0.5017  0.4210
 7753PW      WM28195   9.196   8.315   3.270 -0.6644 -0.0948 -0.0283
 7754PW       W28196   9.103   2.198  11.882  0.5226 -0.3623  0.7168
 7754PW      WP28197   8.997   2.281  11.922  0.8531  0.7569 -0.4045
 7754PW      WM28198   9.208   2.291  11.887  0.1370  0.1632  0.0118
 7755PW       W28199   1.444   5.733   9.123 -0.1255 -0.1816 -0.1313
 7755PW      WP28200   1.582   5.749   9.102 -0.0760 -0.4015  0.0142
 7755PW      WM28201   1.439   5.863   9.176  0.0119 -0.1302 -0.2423
 7756PW       W28202   0.457  11.291  12.220 -0.3358 -0.1360 -0.0816
 7756PW      WP28203   0.371  11.194  12.273 -0.4649 -0.2032 -0.4039
 7756PW      WM28204   0.507  11.169  12.173 -0.2234  0.0722 -0.5248
 7757PW       W28205   0.805   2.197   9.250 -0.3654 -0.0818  0.4136
 7757PW      WP28206   0.920   2.164   9.323 -0.0648 -0.3407 -0.1443
 7757PW      WM28207   0.762   2.320   9.198  0.3059  0.2003  0.4706
 7758PW       W28208   9.734  11.931  12.848  0.0424 -0.7580 -0.0032
 7758PW      WP28209   9.869  11.968  12.845 -0.1877  0.2645  0.3639
 7758PW      WM28210   9.729  11.819  12.764  0.2900 -0.4653 -0.4310
 7759PW       W28211   8.752  10.737  12.346 -0.1692  0.0219  0.3456
 7759PW      WP28212   8.798  10.865  12.379 -0.1075  0.1000 -0.0303
 7759PW      WM28213   8.651  10.684  12.428 -0.2516  0.3502  0.4647
 7760PW       W28214  10.739   0.466   2.310  0.0189  0.3247 -0.0189
 7760PW      WP28215  10.719   0.422   2.442 -0.1919  0.3738 -0.0332
 7760PW      WM28216  10.816   0.574   2.265  0.3325  0.1617  0.1109
 7761PW       W28217   9.063   0.351   4.718 -0.5374  0.0588  0.2016
 7761PW      WP28218   9.046   0.213   4.719  0.0392 -0.0259  0.3587
 7761PW      WM28219   9.165   0.347   4.813 -0.2357 -0.2064 -0.1217
 7762PW       W28220   0.729   1.897  11.711  0.2795  0.0278  0.5640
 7762PW      WP28221   0.855   1.951  11.681  0.1082  0.2985  0.3088
 7762PW      WM28222   0.671   1.775  11.672  0.2941  0.3078 -0.5069
 7763PW       W28223   1.889   1.483   1.722  0.4183 -0.2307  0.2373
 7763PW      WP28224   1.957   1.459   1.842  0.2502  0.2853  0.4526
 7763PW      WM28225   1.868   1.622   1.720  0.9371 -0.1349  0.5327
 7764PW       W28226   6.965   5.002  13.162  0.3613 -0.1254 -0.0474
 7764PW      WP28227   7.003   4.981  13.029  0.3044  0.2835 -0.1345
 7764PW      WM28228   6.947   5.130  13.218 -0.2117 -0.0608 -0.3477
 7765PW       W28229  10.179   4.973  12.510 -0.0122 -0.0481  0.0362
 7765PW      WP28230  10.141   4.942  12.379  0.2384  0.3931 -0.1523
 7765PW      WM28231  10.039   4.975  12.520 -0.0403 -0.2906 -0.2358
 7766PW       W28232   5.073   2.877   1.915  0.1906  0.0090  0.1475
 7766PW      WP28233   5.158   2.942   1.825 -0.4308  0.2952 -0.2705
 7766PW      WM28234   5.007   2.779   1.990  0.5448 -0.6931 -0.3981
 7767PW       W28235   0.599   2.290   4.218  0.2220 -0.0233 -0.3753
 7767PW      WP28236   0.544   2.330   4.096 -0.3058  0.3349 -0.0409
 7767PW      WM28237   0.581   2.189   4.123 -0.4884 -0.0559 -0.2349
 7768PW       W28238  10.417   9.068  10.198  0.0390 -0.2840  0.5655
 7768PW      WP28239  10.405   9.190  10.265  0.1548  0.1394 -0.1351
 7768PW      WM28240  10.512   8.981  10.143 -0.4032 -0.4004 -0.0825
 7769PW       W28241   0.723   8.948   4.686 -0.2094 -0.0949 -0.1420
 7769PW      WP28242   0.628   8.847   4.665 -0.1014 -0.2488  0.0898
 7769PW      WM28243   0.679   8.997   4.809 -0.2945  0.0199 -0.2171
 7770PW       W28244   7.840   6.477  12.245 -0.0467  0.1255  0.1349
 7770PW      WP28245   7.815   6.469  12.383 -0.1044 -0.0997  0.1132
 7770PW      WM28246   7.713   6.418  12.253  0.0919 -0.1922  0.0614
 7771PW       W28247   3.327   0.869   0.330  0.0636 -0.0188 -0.4229
 7771PW      WP28248   3.269   0.976   0.261 -0.5218  0.0613  0.1441
 7771PW      WM28249   3.290   0.734   0.320  0.4349 -0.1657  0.0156
 7772PW       W28250   3.403  10.910  11.786 -0.1086  0.1993 -0.0342
 7772PW      WP28251   3.492  10.802  11.791 -0.0852  0.2286  0.4673
 7772PW      WM28252   3.380  10.984  11.903 -0.2520  0.4272 -0.2017
 7773PW       W28253   5.777   3.024   1.307  0.5216  0.1111  0.2361
 7773PW      WP28254   5.916   3.041   1.316  0.6380 -0.6559  0.2719
 7773PW      WM28255   5.764   2.884   1.301 -0.2700  0.1657  0.0670
 7774PW       W28256   8.048   2.778   8.421  0.3366  0.1603 -0.1866
 7774PW      WP28257   8.021   2.759   8.558  0.1284  0.0314 -0.2436
 7774PW      WM28258   7.918   2.786   8.371  0.2033  0.3964  0.1756
 7775PW       W28259   9.933   9.871   8.826  0.1967 -0.3645 -0.0567
 7775PW      WP28260   9.929   9.873   8.966  0.1923 -0.8771 -0.0386
 7775PW      WM28261  10.048   9.810   8.774  0.3400 -0.1397 -0.0103
 7776PW       W28262   9.286  11.929  11.217  0.2786 -0.2554  0.1965
 7776PW      WP28263   9.253  11.850  11.107 -0.1075  0.0200  0.1037
 7776PW      WM28264   9.285  11.797  11.264  0.1051 -0.4099 -0.2196
 7777PW       W28265   6.194   3.859   9.554 -0.3859  0.2784  0.1620
 7777PW      WP28266   6.200   3.887   9.691 -0.0872  0.3363  0.1419
 7777PW      WM28267   6.328   3.819   9.562 -0.2657  0.6136 -0.0617
 7778PW       W28268   9.978  11.178   3.360  0.4214  0.3571 -0.6035
 7778PW      WP28269  10.052  11.226   3.468  0.1505 -0.4151 -0.0242
 7778PW      WM28270   9.858  11.249   3.343 -0.1848 -0.4676 -0.1579
 7779PW       W28271   9.928   2.173   8.391  0.0085 -0.5803  0.1494
 7779PW      WP28272   9.801   2.113   8.390 -0.4081  0.1904 -0.6954
 7779PW      WM28273  10.038   2.163   8.476  0.0332 -0.1981  0.1723
 7780PW       W28274   3.621   4.046   2.832  0.0941 -0.2604 -0.0728
 7780PW      WP28275   3.668   4.033   2.700 -0.4658 -0.1114 -0.3020
 7780PW      WM28276   3.743   4.069   2.896 -0.0043  0.3270 -0.0714
 7781PW       W28277   4.910   2.106   3.852  0.2106  0.3147 -0.0608
 7781PW      WP28278   4.911   2.241   3.889  0.0611  0.3008 -0.0038
 7781PW      WM28279   4.797   2.028   3.824  0.5593 -0.3121  0.1655
 7782PW       W28280  10.700   6.874   9.562  0.2234 -0.0462 -0.0569
 7782PW      WP28281  10.744   6.827   9.686  0.5228 -0.4168 -0.2915
 7782PW      WM28282  10.647   7.003   9.572  0.0173 -0.0983 -0.3827
 7783PW       W28283  10.671  10.369   3.182  0.3842  0.0507 -0.1635
 7783PW      WP28284  10.630  10.469   3.092  0.2352 -0.0949 -0.2608
 7783PW      WM28285  10.576  10.271   3.214  0.2004  0.0516 -0.6549
 7784PW       W28286   8.432   4.526  13.133 -0.0873 -0.0787 -0.5161
 7784PW      WP28287   8.533   4.603  13.074  0.0198  0.2377  0.0397
 7784PW      WM28288   8.357   4.616  13.211  0.1568 -0.1979 -0.1306
 7785PW       W28289   6.583   7.370   3.363  0.1154 -0.1524 -0.0690
 7785PW      WP28290   6.567   7.243   3.306 -0.3000 -0.0255 -0.2553
 7785PW      WM28291   6.642   7.497   3.371 -0.1004 -0.0545  0.0219
 7786PW       W28292   1.029   2.928   0.401  0.1495  0.3258  0.0489
 7786PW      WP28293   0.940   2.828   0.442  0.4472 -0.1035 -0.3103
 7786PW      WM28294   1.151   2.989   0.432  0.0365  0.5156  0.1326
 7787PW       W28295  11.285  11.108   3.222 -0.2411 -0.1389  0.3530
 7787PW      WP28296  11.288  11.116   3.362 -0.0620  0.5723  0.3257
 7787PW      WM28297  11.291  11.015   3.117  0.4784  0.1267  0.1316
 7788PW       W28298   3.575   6.320  12.334 -0.1443 -0.1721  0.1463
 7788PW      WP28299   3.640   6.210  12.278  0.0396 -0.1343  0.2799
 7788PW      WM28300   3.557   6.216  12.426 -0.1707  0.1659  0.5417
 7789PW       W28301   0.555   6.505  10.423 -0.0909 -0.1401  0.0764
 7789PW      WP28302   0.595   6.407  10.332 -0.5700  0.1452 -0.4685
 7789PW      WM28303   0.569   6.633  10.480 -0.0275 -0.1056 -0.0150
 7790PW       W28304   4.661   7.347  12.922  0.2242 -0.0243 -0.1987
 7790PW      WP28305   4.680   7.209  12.930  0.0818 -0.0523 -0.3200
 7790PW      WM28306   4.658   7.354  13.062 -0.0509  0.0924 -0.2069
 7791PW       W28307   3.916   0.002  13.143  0.5565  0.6491 -0.2968
 7791PW      WP28308   3.815   0.091  13.107 -0.0604 -0.0590 -0.4234
 7791PW      WM28309   4.012  -0.041  13.236 -0.2514 -0.2346  0.2096
 7792PW       W28310   7.670  10.151   9.376 -0.1601  0.1018  0.1633
 7792PW      WP28311   7.784  10.233   9.377 -0.2002  0.1596  0.0339
 7792PW      WM28312   7.694  10.115   9.243  0.0996 -0.0345  0.2418
 7793PW       W28313   7.919   8.215  11.930  0.1475 -0.0011 -0.0773
 7793PW      WP28314   7.990   8.326  11.979  0.2284 -0.3771  0.7382
 7793PW      WM28315   8.017   8.158  12.012 -0.5590 -0.2051  0.7026
 7794PW       W28316   0.743   8.664   0.497  0.3919 -0.0886 -0.3259
 7794PW      WP28317   0.651   8.747   0.432  0.2160 -0.3129 -0.3692
 7794PW      WM28318   0.649   8.561   0.499  0.2970 -0.0234 -0.8212
 7795PW       W28319   3.605   6.708   9.187  0.3869  0.0302  0.3310
 7795PW      WP28320   3.508   6.799   9.230  0.5729  0.5754 -0.3213
 7795PW      WM28321   3.625   6.778   9.067  0.0654 -0.5163 -0.0587
 7796PW       W28322   6.871   2.154  10.910 -0.2737 -0.0400  0.2350
 7796PW      WP28323   6.971   2.070  10.960 -0.0700  0.3904  0.5936
 7796PW      WM28324   6.873   2.285  10.859 -0.5459 -0.0147  0.2821
 7797PW       W28325   4.969  11.804   2.307  0.0901  0.3766 -0.0625
 7797PW      WP28326   4.998  11.742   2.184 -0.0960  0.5576 -0.2006
 7797PW      WM28327   4.997  11.703   2.400 -0.0920  0.2645 -0.1257
 7798PW       W28328   7.446   1.024  11.400 -0.4777 -0.1703  0.6294
 7798PW      WP28329   7.548   0.934  11.436  0.2659  0.1161 -0.4975
 7798PW      WM28330   7.390   1.145  11.360 -0.2645 -0.1101  0.5047
 7799PW       W28331   6.483   7.115   5.405  0.2874  0.4057 -0.1653
 7799PW      WP28332   6.546   7.053   5.514  0.0564  0.5014  0.0272
 7799PW      WM28333   6.613   7.129   5.355  0.2685 -0.3029 -0.4675
 7800PW       W28334   9.554   0.975   0.862  0.3297 -0.2867  0.0016
 7800PW      WP28335   9.542   0.842   0.902 -0.3200 -0.1764  0.2492
 7800PW      WM28336   9.666   0.940   0.938  0.4065  0.2447  0.1545
 7801PW       W28337   7.896  10.580  10.765  0.0041 -0.4348 -0.1530
 7801PW      WP28338   8.030  10.574  10.805  0.0002  0.0372 -0.0404
 7801PW      WM28339   7.756  10.568  10.763 -0.0569 -0.1174  0.5754
 7802PW       W28340   7.736   0.494   4.899 -0.3281  0.2956 -0.1009
 7802PW      WP28341   7.722   0.548   4.770 -0.2224  0.1645 -0.1687
 7802PW      WM28342   7.852   0.550   4.953 -0.3648  0.6364 -0.3587
 7803PW       W28343  10.145   1.905   5.022  0.0723 -0.1195  0.1955
 7803PW      WP28344  10.250   1.830   5.075  0.2489 -0.4496 -0.5495
 7803PW      WM28345  10.152   1.932   4.884  0.2210 -0.0868  0.2086
 7804PW       W28346   3.592   9.532  11.042 -0.2686  0.2201 -0.0557
 7804PW      WP28347   3.520   9.552  10.924 -0.0801  0.0758 -0.1989
 7804PW      WM28348   3.620   9.657  11.098 -0.2266  0.1843  0.0035
 7805PW       W28349  10.970   0.232   1.845  0.2137  0.1575  0.2120
 7805PW      WP28350  11.007   0.259   1.713 -0.5322  0.5324  0.0509
 7805PW      WM28351  10.975   0.120   1.929 -0.0644 -0.2312 -0.2603
 7806PW       W28352   5.829   0.909   2.899 -0.1251  0.1503  0.2295
 7806PW      WP28353   5.790   0.800   2.820  0.3127  0.3402 -0.2868
 7806PW      WM28354   5.950   0.851   2.857 -0.0988  0.0928  0.3806
 7807PW       W28355   0.821   7.781   9.611  0.1740  0.4547 -0.0293
 7807PW      WP28356   0.699   7.752   9.550  0.2636  0.2113 -0.0983
 7807PW      WM28357   0.909   7.727   9.705  0.4584  0.1252 -0.4602
 7808PW       W28358   8.729   2.461   5.185  0.0375 -0.2488  0.4275
 7808PW      WP28359   8.731   2.573   5.269  0.1206 -0.4229  0.6624
 7808PW      WM28360   8.641   2.387   5.105  0.5891  0.0495 -0.5457
 7809PW       W28361   4.623   3.323   3.416  0.0901  0.0259 -0.3325
 7809PW      WP28362   4.529   3.271   3.326  0.0717  0.1216 -0.3688
 7809PW      WM28363   4.681   3.450   3.406  0.3416 -0.0388  0.1547
 7810PW       W28364   3.539   7.133   3.992  0.3611  0.4367  0.2386
 7810PW      WP28365   3.514   7.155   3.856  0.1258  0.3347  0.2626
 7810PW      WM28366   3.528   6.998   3.958 -0.0110  0.4640  0.2210
 7811PW       W28367   9.416  11.831   9.059  0.0291 -0.3953  0.0376
 7811PW      WP28368   9.326  11.814   8.953 -0.1805  0.2512  0.0871
 7811PW      WM28369   9.440  11.938   8.972  0.1065  0.2290  0.7688
 7812PW       W28370   1.892   2.845   1.420 -0.8270  0.1359 -0.0937
 7812PW      WP28371   1.904   2.881   1.555 -0.3855 -0.1227 -0.0541
 7812PW      WM28372   1.771   2.797   1.370 -0.2895 -0.8375 -0.5872
 7813PW       W28373   6.335   1.292   4.768  0.0775 -0.2953  0.1528
 7813PW      WP28374   6.317   1.409   4.842  0.1577 -0.2057  0.0316
 7813PW      WM28375   6.210   1.232   4.791  0.1289 -0.5049 -0.0896
 7814PW       W28376  11.410  11.667   5.389 -0.0017  0.1374  0.2058
 7814PW      WP28377  11.334  11.552   5.408 -0.2505  0.3136  0.3110
 7814PW      WM28378  11.309  11.761   5.416 -0.2160 -0.1666  0.5104
 7815PW       W28379   8.110   7.819   0.376  0.1439  0.3459 -0.3196
 7815PW      WP28380   8.126   7.950   0.331  0.1592  0.4382 -0.0542
 7815PW      WM28381   8.190   7.782   0.484  0.0422 -0.1547 -0.4024
 7816PW       W28382   8.332   0.962  12.858  0.4875  0.3099 -0.1381
 7816PW      WP28383   8.196   0.989  12.882  0.3710 -0.1229 -0.2696
 7816PW      WM28384   8.391   0.872  12.769 -0.1890 -0.0512 -0.2614
 7817PW       W28385   1.862   3.152   3.936  0.1021  0.0823  0.2327
 7817PW      WP28386   1.827   3.251   3.843 -0.8120 -0.2597  0.1608
 7817PW      WM28387   1.971   3.065   3.928 -0.2660 -0.3719 -0.2550
 7818PW       W28388   8.053   7.870   9.177  0.2264 -0.6266 -0.1089
 7818PW      WP28389   7.951   7.801   9.110  0.0165 -0.5341  0.1084
 7818PW      WM28390   8.092   7.947   9.287  0.2997 -0.1083 -0.4812
 7819PW       W28391   0.980   1.242  12.495 -0.3715 -0.2436 -0.0066
 7819PW      WP28392   0.942   1.140  12.406  0.7951 -0.5493 -0.2353
 7819PW      WM28393   0.899   1.354  12.472  0.0282 -0.0122 -0.3737
 7820PW       W28394   6.416   8.826   3.044  0.3401 -0.1547 -0.2843
 7820PW      WP28395   6.510   8.923   3.005  0.0007  0.1092 -0.4745
 7820PW      WM28396   6.306   8.747   3.010  0.0181  0.2809 -0.3022
 7821PW       W28397   9.003  11.379   2.290  0.6145  0.1823  0.0053
 7821PW      WP28398   8.976  11.264   2.364 -0.1762  0.3765  0.0653
 7821PW      WM28399   8.972  11.452   2.175 -0.9039 -0.0107  0.1843
 7822PW       W28400   3.475   9.995  11.227 -0.5632  0.0786  0.5520
 7822PW      WP28401   3.426   9.867  11.255  0.1652 -0.3648 -0.0048
 7822PW      WM28402   3.548  10.027  11.343  0.2050  0.4137  0.0232
 7823PW       W28403   8.703   8.165  10.230 -0.2722  0.4170  0.1381
 7823PW      WP28404   8.606   8.124  10.138  0.1221 -0.0571 -0.0880
 7823PW      WM28405   8.609   8.154  10.334 -0.2486 -0.1857  0.1116
 7824PW       W28406   2.282  11.636   0.435  0.2425  0.1023 -0.0117
 7824PW      WP28407   2.301  11.774   0.425  0.2508  0.1298  0.3107
 7824PW      WM28408   2.385  11.568   0.501 -0.0756  0.0316  0.4367
 7825PW       W28409   3.634   3.112   3.103  0.0688 -0.0178 -0.3228
 7825PW      WP28410   3.674   2.982   3.139 -0.2173 -0.1268 -0.3855
 7825PW      WM28411   3.602   3.248   3.106 -0.0246 -0.0419 -0.2119
 7826PW       W28412   6.527   4.487   2.529 -0.0159 -0.2650 -0.3881
 7826PW      WP28413   6.492   4.399   2.633 -0.4459  0.1047 -0.2042
 7826PW      WM28414   6.439   4.573   2.596  0.0015 -0.0804 -0.5989
 7827PW       W28415   9.032  12.011  10.405 -0.2716  0.4160 -0.2897
 7827PW      WP28416   9.062  12.144  10.437  0.1199  0.3572 -0.3917
 7827PW      WM28417   9.059  12.133  10.469 -0.8234  0.1703  0.4963
 7828PW       W28418   7.399   0.446   2.553  0.6277  0.1723 -0.6314
 7828PW      WP28419   7.433   0.520   2.668 -0.0689  0.0247 -0.3076
 7828PW      WM28420   7.442   0.330   2.619 -0.4100  0.0387 -0.0827
 7829PW       W28421  12.116   5.362   9.771  0.3021  0.4263 -0.1554
 7829PW      WP28422  11.997   5.288   9.778  0.4154  0.2622  0.1904
 7829PW      WM28423  12.076   5.419   9.650 -0.5112 -0.4482 -0.3614
 7830PW       W28424   5.374  10.750   0.643  0.1102 -0.2312 -0.5195
 7830PW      WP28425   5.457  10.703   0.746 -0.1779  0.2174 -0.0593
 7830PW      WM28426   5.253  10.691   0.683  0.0948  0.0256 -0.1659
 7831PW       W28427  11.615   4.785  10.047  0.2777 -0.1360  0.1836
 7831PW      WP28428  11.648   4.685   9.955 -0.1640  0.2930 -0.4865
 7831PW      WM28429  11.633   4.906  10.116  0.0335 -0.2010  0.3681
 7832PW       W28430   9.148   0.742   8.963 -0.3121 -0.5373  0.1324
 7832PW      WP28431   9.116   0.702   9.093 -0.3024  0.0663  0.3344
 7832PW      WM28432   9.016   0.780   8.990 -0.1531 -0.0673  0.2894
 7833PW       W28433   2.554   8.131  10.146  0.2753  0.1662  0.1474
 7833PW      WP28434   2.436   8.066  10.183  0.3364 -0.0770 -0.0681
 7833PW      WM28435   2.499   8.229  10.063 -0.3088  0.0022  0.3174
 7834PW       W28436   5.250   6.610   8.555  0.3108 -0.1654 -0.4543
 7834PW      WP28437   5.283   6.737   8.504  0.3896  0.1178  0.2474
 7834PW      WM28438   5.280   6.544   8.674 -0.1298  0.2863 -0.0722
 7835PW       W28439   7.242   3.130   5.667 -0.1635  0.3954  0.1280
 7835PW      WP28440   7.154   3.021   5.678  0.0216  0.1876 -0.3087
 7835PW      WM28441   7.375   3.162   5.636 -0.1102 -0.1070 -0.2228
 7836PW       W28442   8.887   3.409   4.944 -0.1577 -0.0049 -0.1756
 7836PW      WP28443   8.875   3.281   4.888 -0.2330 -0.0236 -0.1179
 7836PW      WM28444   8.832   3.526   4.891  0.1434  0.0647 -0.3436
 7837PW       W28445   5.284   6.011  13.189  0.1778  0.2510 -0.8033
 7837PW      WP28446   5.158   6.054  13.232  0.3265  0.5417 -0.6454
 7837PW      WM28447   5.382   5.916  13.157  0.1551 -0.0210 -0.1388
 7838PW       W28448   6.716  10.540  12.286  0.3755  0.0197  0.2472
 7838PW      WP28449   6.697  10.579  12.153  0.3232 -0.7468  0.0065
 7838PW      WM28450   6.820  10.563  12.377  0.3605  0.1625  0.2304
 7839PW       W28451  10.569   8.765  12.105  0.2158 -0.1661  0.3152
 7839PW      WP28452  10.499   8.861  12.029  0.6603 -0.1412 -0.0898
 7839PW      WM28453  10.631   8.864  12.183  0.2812  0.1046 -0.0617
 7840PW       W28454   7.095  11.847   4.853 -0.0476  0.1727 -0.2589
 7840PW      WP28455   7.222  11.865   4.909 -0.2365  0.0155  0.2484
 7840PW      WM28456   7.087  11.797   4.722 -0.2235  0.1718 -0.2494
 7841PW       W28457   6.040   9.420  12.939  0.0426  0.0483  0.3666
 7841PW      WP28458   5.901   9.408  12.951 -0.0128 -0.2334 -0.2909
 7841PW      WM28459   6.141   9.507  12.983  0.4608 -0.2770  0.1006
 7842PW       W28460   7.697   3.087  12.609  0.1595  0.3409  0.3189
 7842PW      WP28461   7.655   3.028  12.728 -0.2942  0.0184  0.0196
 7842PW      WM28462   7.650   3.193  12.529 -0.3977 -0.0514  0.0914
 7843PW       W28463   6.917   0.298   3.499  0.1353 -0.1062  0.2322
 7843PW      WP28464   6.862   0.406   3.570  0.1345 -0.2088  0.3903
 7843PW      WM28465   6.887   0.168   3.458  0.3067 -0.0155 -0.2135
 7844PW       W28466   5.605   9.000   4.090  0.4171 -0.0269 -0.1862
 7844PW      WP28467   5.526   9.083   4.170  0.6895  0.3550 -0.2993
 7844PW      WM28468   5.673   9.084   4.179 -0.1500  0.0452  0.2107
 7845PW       W28469   7.047   6.368   2.659  0.1615  0.4489  0.2403
 7845PW      WP28470   7.083   6.437   2.543 -0.0453  0.1048 -0.0402
 7845PW      WM28471   7.179   6.336   2.692 -0.0056 -0.0958  0.4248
 7846PW       W28472   2.810  10.762   1.609  0.6886 -0.1966 -0.0054
 7846PW      WP28473   2.865  10.634   1.596  0.1379 -0.4712  0.2285
 7846PW      WM28474   2.755  10.793   1.484  0.0539 -0.2201  0.2496
 7847PW       W28475   6.330   3.373   2.960 -0.0293  0.1105  0.1115
 7847PW      WP28476   6.427   3.402   3.057  0.2537  0.4435 -0.2532
 7847PW      WM28477   6.318   3.271   3.055 -0.0807  0.2869  0.2968
 7848PW       W28478   0.170   6.999   2.211 -0.1853  0.2739  0.5675
 7848PW      WP28479   0.222   7.053   2.329  0.4143 -0.0466  0.4756
 7848PW      WM28480   0.194   6.870   2.261 -0.1480 -0.1516 -0.4209
 7849PW       W28481   9.448   5.499  12.959  0.1207 -0.4320  0.1433
 7849PW      WP28482   9.547   5.402  12.937  0.2892 -0.2654  0.1440
 7849PW      WM28483   9.478   5.634  12.985 -0.5416 -0.2794  0.1868
 7850PW       W28484   9.695   7.904  10.537  0.2750  0.0908 -0.0349
 7850PW      WP28485   9.733   7.839  10.420 -0.4599 -0.1767 -0.1467
 7850PW      WM28486   9.822   7.953  10.504  0.1919  0.0948 -0.3624
 7851PW       W28487   7.268   9.619   9.140 -0.2697  0.1851  0.4222
 7851PW      WP28488   7.301   9.728   9.058 -0.1591  0.0089  0.2264
 7851PW      WM28489   7.400   9.660   9.155  0.0325 -0.4622 -0.1600
 7852PW       W28490   9.758  11.655   0.464  0.0372  0.1949 -0.0937
 7852PW      WP28491   9.711  11.774   0.406 -0.6468  0.0251  0.0646
 7852PW      WM28492   9.883  11.697   0.512  0.0861 -0.0812  0.0314
 7853PW       W28493   4.421   7.435   9.954  0.0991 -0.1121  0.1654
 7853PW      WP28494   4.450   7.508  10.070 -0.3123  0.0696  0.1634
 7853PW      WM28495   4.375   7.305   9.930 -0.2704  0.0694 -0.1872
 7854PW       W28496   2.140   4.118   0.315 -0.0197 -0.1117  0.0676
 7854PW      WP28497   2.021   4.127   0.242 -0.0967 -0.4099  0.1495
 7854PW      WM28498   2.249   4.108   0.228  0.0626  0.4298  0.0889
 7855PW       W28499   1.785  10.284  12.054  0.0493 -0.0195  0.0414
 7855PW      WP28500   1.678  10.242  12.135 -0.2288  0.0472 -0.2820
 7855PW      WM28501   1.837  10.173  12.122 -0.3819 -0.3789 -0.1908
 7856PW       W28502   6.041   8.345   2.360 -0.0116  0.4055 -0.0513
 7856PW      WP28503   6.144   8.314   2.451  0.1230  0.2033 -0.2642
 7856PW      WM28504   6.156   8.422   2.338  0.1457  0.2476  0.1825
 7857PW       W28505  11.174   2.773   5.647 -0.3789  0.3455  0.1599
 7857PW      WP28506  11.132   2.718   5.525 -0.1170 -0.2178  0.3061
 7857PW      WM28507  11.136   2.900   5.601  0.4201  0.5384 -0.0463
 7858PW       W28508   0.479   7.931  11.905  0.0364  0.3372 -0.2250
 7858PW      WP28509   0.542   8.049  11.863 -0.0368  0.3954 -0.1720
 7858PW      WM28510   0.485   7.849  11.792 -0.2771 -0.2585  0.1646
 7859PW       W28511   8.146   1.755   1.138 -0.2155 -0.3800  0.1631
 7859PW      WP28512   8.171   1.809   1.264  0.0302  0.4217 -0.1977
 7859PW      WM28513   8.099   1.624   1.118  0.1589 -0.4842 -0.0981
 7860PW       W28514   3.972   8.793  10.440  0.2873 -0.4198  0.4288
 7860PW      WP28515   3.860   8.815  10.359  0.4058 -0.2416  0.3089
 7860PW      WM28516   4.069   8.833  10.347 -0.2429 -0.0337  0.0094
 7861PW       W28517   3.912   8.845   2.926  0.0231  0.0593 -0.2760
 7861PW      WP28518   3.974   8.757   3.015  0.2882  0.4122 -0.1032
 7861PW      WM28519   4.029   8.862   2.851  0.1947 -0.6752 -0.2109
 7862PW       W28520   6.053   7.269  10.699 -0.0578 -0.4484 -0.0994
 7862PW      WP28521   6.029   7.323  10.572  0.3917 -0.4093 -0.1748
 7862PW      WM28522   6.163   7.190  10.662  0.1115 -0.1991 -0.1407
 7863PW       W28523   4.797   4.670  11.933 -0.0484 -0.0244 -0.1361
 7863PW      WP28524   4.685   4.653  11.850  0.0361  0.1244 -0.2834
 7863PW      WM28525   4.858   4.756  11.841  0.0056  0.0186 -0.0609
 7864PW       W28526  11.440  11.177  10.732 -0.0795  0.2368  0.0042
 7864PW      WP28527  11.405  11.168  10.867 -0.7124 -0.0503 -0.1630
 7864PW      WM28528  11.531  11.235  10.821  0.5002 -0.2903 -0.2073
 7865PW       W28529   1.035   1.438   2.451 -0.2471  0.2370  0.4036
 7865PW      WP28530   1.000   1.407   2.319 -0.1170  0.2253  0.3704
 7865PW      WM28531   1.070   1.315   2.508 -0.2638  0.1281  0.1863
 7866PW       W28532  10.106   0.815  12.098 -0.3813 -0.1233 -0.0403
 7866PW      WP28533  10.033   0.782  11.983 -0.1239  0.1863 -0.3033
 7866PW      WM28534  10.224   0.740  12.090 -0.3586 -0.0913 -0.0084
 7867PW       W28535   5.550   0.138   0.837 -0.3000 -0.0860 -0.0694
 7867PW      WP28536   5.609   0.264   0.845 -0.0115 -0.1915 -0.4213
 7867PW      WM28537   5.455   0.166   0.937 -0.0568  0.2533  0.0783
 7868PW       W28538   5.671   8.411   0.637  0.1386 -0.3674  0.0384
 7868PW      WP28539   5.792   8.418   0.707  0.2125  0.6565 -0.1195
 7868PW      WM28540   5.613   8.405   0.764  0.5284  0.0342  0.2528
 7869PW       W28541   0.048   0.728   5.538  0.2218  0.2655 -0.2000
 7869PW      WP28542   0.067   0.589   5.547 -0.6243  0.1088 -0.4041
 7869PW      WM28543   0.094   0.771   5.413 -0.0525  0.3506 -0.2761
 7870PW       W28544   8.009   8.249   3.685  0.4268 -0.2962  0.2315
 7870PW      WP28545   8.132   8.316   3.695  0.3398 -0.1118  0.0976
 7870PW      WM28546   8.091   8.240   3.572  0.3150  0.2632  0.0864
 7871PW       W28547  11.009   4.887  12.570  0.3232 -0.2012 -0.1936
 7871PW      WP28548  10.952   4.805  12.472  0.4145 -0.1345 -0.3049
 7871PW      WM28549  11.054   4.949  12.452 -0.5038  0.3642 -0.2522
 7872PW       W28550   4.189   3.138  10.524 -0.2805  0.5590 -0.0118
 7872PW      WP28551   4.253   3.074  10.417 -0.3651 -0.0127  0.2605
 7872PW      WM28552   4.172   3.246  10.438  0.1034  0.6232 -0.0153
 7873PW       W28553   3.753   5.255  11.529 -0.6824 -0.0288  0.4007
 7873PW      WP28554   3.823   5.137  11.554 -0.5389  0.0644  0.4470
 7873PW      WM28555   3.655   5.354  11.532 -0.5200  0.1941 -0.3994
 7874PW       W28556   8.783   0.900   1.108  0.1767  0.4989 -0.0103
 7874PW      WP28557   8.685   0.968   1.034  0.0968  0.0553 -0.3297
 7874PW      WM28558   8.921   0.913   1.131  0.1999  0.0144  0.1829
 7875PW       W28559   8.424   1.936  10.191 -0.0139  0.0193  0.0002
 7875PW      WP28560   8.346   1.899  10.081 -0.0538 -0.0665  0.0565
 7875PW      WM28561   8.560   1.941  10.161 -0.1198 -0.1821 -0.5657
 7876PW       W28562   0.082   5.810  11.501 -0.3845 -0.1638  0.1957
 7876PW      WP28563   0.088   5.726  11.390  0.2126  0.0894  0.0178
 7876PW      WM28564   0.091   5.747  11.626 -0.2552 -0.5565 -0.0049
 7877PW       W28565  10.880   6.179  10.443  0.6267 -0.6502 -0.0809
 7877PW      WP28566  10.759   6.131  10.495  0.3531  0.0034 -0.0680
 7877PW      WM28567  10.921   6.217  10.571 -0.1786  0.4243 -0.0753
 7878PW       W28568   7.679   1.799  10.857 -0.3898  0.1626  0.0454
 7878PW      WP28569   7.693   1.665  10.896 -0.3501  0.2184  0.2296
 7878PW      WM28570   7.641   1.885  10.753 -0.0143 -0.0038 -0.2401
 7879PW       W28571   2.056   5.350   3.257  0.1770  0.0695  0.2711
 7879PW      WP28572   2.066   5.408   3.384  0.6624  0.4097  0.0918
 7879PW      WM28573   2.168   5.269   3.279  0.2017  0.0351  0.0294
 7880PW       W28574   3.710   3.793   9.195 -0.2090  0.1090 -0.0513
 7880PW      WP28575   3.579   3.745   9.189 -0.1500 -0.1279  0.3576
 7880PW      WM28576   3.735   3.672   9.262  0.0322  0.1281 -0.1010
 7881PW       W28577  10.626  10.183   9.020  0.4851  0.2150  0.0472
 7881PW      WP28578  10.645  10.089   8.919  0.4012  0.4419 -0.1842
 7881PW      WM28579  10.637  10.300   9.096  0.0400  0.7001 -0.5796
 7882PW       W28580  11.865   3.818   4.568 -0.1001 -0.2317  0.0801
 7882PW      WP28581  11.971   3.729   4.594  0.2421  0.1237 -0.0454
 7882PW      WM28582  11.791   3.731   4.648 -0.4557 -0.0465 -0.0399
 7883PW       W28583   5.375   7.544   7.954  0.2334 -0.4558  0.4543
 7883PW      WP28584   5.360   7.644   8.050 -0.5550 -0.3320  0.2352
 7883PW      WM28585   5.244   7.496   7.965 -0.0319 -0.0807 -0.5269
 7884PW       W28586   9.084  11.355   1.197 -0.2362  0.1601 -0.1029
 7884PW      WP28587   9.186  11.314   1.284 -0.1770  0.5672  0.0280
 7884PW      WM28588   9.137  11.472   1.141  0.7095 -0.2563 -0.1768
 7885PW       W28589   0.643   2.459  10.622  0.2034  0.0590  0.0101
 7885PW      WP28590   0.714   2.461  10.743  0.7980 -0.0958 -0.3188
 7885PW      WM28591   0.543   2.487  10.528  0.0757 -0.0610  0.1076
 7886PW       W28592   5.709   4.681   9.774  0.0327  0.0534 -0.2153
 7886PW      WP28593   5.816   4.629   9.700  0.2126 -0.0784  0.1230
 7886PW      WM28594   5.766   4.691   9.901 -0.0724  0.5229 -0.1969
 7887PW       W28595   2.764   0.719  13.185 -0.2964 -0.0975 -0.1100
 7887PW      WP28596   2.815   0.592  13.157 -0.3987 -0.0936 -0.3234
 7887PW      WM28597   2.715   0.847  13.157 -0.1284 -0.0690 -0.2912
 7888PW       W28598   4.266  11.598  11.576 -0.2745  0.2041  0.1401
 7888PW      WP28599   4.327  11.705  11.643  0.1887  0.0330  0.0119
 7888PW      WM28600   4.238  11.522  11.691  0.3399 -0.1275  0.0914
 7889PW       W28601   0.045   5.093   0.550  0.1054 -0.1210  0.0925
 7889PW      WP28602   0.149   5.108   0.643  0.1227 -0.1789  0.0829
 7889PW      WM28603   0.052   5.011   0.437  0.1340  0.2103 -0.1535
 7890PW       W28604  11.455  10.278   4.021  0.1711  0.2912  0.0108
 7890PW      WP28605  11.435  10.280   4.159 -0.1107 -0.2095 -0.0135
 7890PW      WM28606  11.499  10.228   3.898  0.0586  0.5065 -0.1204
 7891PW       W28607   0.172   9.253  12.462 -0.0184  0.1958  0.6090
 7891PW      WP28608   0.139   9.389  12.449  0.0882  0.2024  0.3638
 7891PW      WM28609   0.302   9.306  12.465 -0.1385  0.5350  0.3130
 7892PW       W28610   5.996   4.014   1.710  0.1361 -0.1215 -0.1074
 7892PW      WP28611   5.957   3.930   1.815 -0.0579  0.0639 -0.0290
 7892PW      WM28612   5.941   4.142   1.706 -0.0449 -0.1933  0.0095
 7893PW       W28613   6.990   0.185   4.905  0.7154 -0.2338 -0.2876
 7893PW      WP28614   6.947   0.091   4.812  0.1121  0.0949 -0.3664
 7893PW      WM28615   6.989   0.304   4.831 -0.3871  0.2101  0.3154
 7894PW       W28616   3.505   6.923   3.485  0.3004 -0.1676  0.0898
 7894PW      WP28617   3.455   6.806   3.542 -0.0830 -0.1143 -0.1207
 7894PW      WM28618   3.490   7.030   3.575  0.1656 -0.0365 -0.0838
 7895PW       W28619   5.521   0.336  12.655  0.2358 -0.2114 -0.1200
 7895PW      WP28620   5.524   0.438  12.750  0.3262 -0.1865 -0.1485
 7895PW      WM28621   5.615   0.385  12.563  0.0619  0.3797 -0.0063
 7896PW       W28622  11.344  10.163  11.206  0.4165  0.1948 -0.0244
 7896PW      WP28623  11.461  10.099  11.250  0.2856  0.0463  0.1175
 7896PW      WM28624  11.337  10.302  11.202  0.0550  0.1836  0.0606
 7897PW       W28625   5.411   7.796  11.080  0.0993  0.0140 -0.0073
 7897PW      WP28626   5.506   7.726  11.004  0.1546  0.1885 -0.1006
 7897PW      WM28627   5.397   7.753  11.213  0.0160  0.3174  0.0860
 7898PW       W28628   1.260  10.292   2.542 -0.0088 -0.4536 -0.1573
 7898PW      WP28629   1.228  10.226   2.661 -0.1154  0.0213  0.0910
 7898PW      WM28630   1.167  10.392   2.512  0.1173 -0.2935 -0.0287
 7899PW       W28631   4.107   2.661  10.698  0.2101  0.1947  0.3504
 7899PW      WP28632   4.217   2.633  10.616  0.1627 -0.2688  0.4275
 7899PW      WM28633   4.128   2.787  10.642 -0.2949  0.1662  0.0647
 7900PW       W28634   9.559   6.407   2.012  0.1887 -0.3826 -0.2465
 7900PW      WP28635   9.452   6.466   1.945  0.2405  0.4234  0.3112
 7900PW      WM28636   9.557   6.269   2.035 -0.0014 -0.3348  0.0473
 7901PW       W28637   1.569  10.039  13.295 -0.3865 -0.4921  0.0881
 7901PW      WP28638   1.550  10.144  13.386  0.8564  0.5098 -0.6407
 7901PW      WM28639   1.448   9.969  13.285 -0.5058 -0.2834  0.0217
 7902PW       W28640  10.516   0.766   5.228 -0.3063 -0.1646  0.2827
 7902PW      WP28641  10.512   0.640   5.289  0.0644 -0.1574  0.3375
 7902PW      WM28642  10.406   0.850   5.209 -0.2463 -0.1410  0.0254
 7903PW       W28643   1.295  10.003  10.907 -0.1230  0.2053 -0.5222
 7903PW      WP28644   1.227   9.895  10.848 -0.1287 -0.0340 -0.0992
 7903PW      WM28645   1.403  10.092  10.905  0.0920 -0.0197  0.1036
 7904PW       W28646  11.369   4.271   2.170  0.1342 -0.2214  0.0924
 7904PW      WP28647  11.423   4.337   2.059  0.0521 -0.1925  0.0696
 7904PW      WM28648  11.265   4.347   2.224  0.2228 -0.2718  0.3414
 7905PW       W28649   5.107  10.499   9.330  0.0399 -0.5460 -0.1169
 7905PW      WP28650   5.068  10.606   9.411  0.2579 -0.2823 -0.3521
 7905PW      WM28651   5.187  10.470   9.441 -0.0182  0.4395  0.2254
 7906PW       W28652   0.486   3.926   8.643 -0.5506 -0.4600  0.1078
 7906PW      WP28653   0.363   3.983   8.606 -0.2176  0.0818 -0.2277
 7906PW      WM28654   0.480   3.819   8.553  0.0696  0.1718 -0.7679
 7907PW       W28655   9.760   1.442   0.630 -0.0670 -0.1143 -0.0139
 7907PW      WP28656   9.887   1.401   0.587 -0.1014 -0.2484  0.0107
 7907PW      WM28657   9.709   1.532   0.536 -0.1167 -0.1034  0.0236
 7908PW       W28658  11.166   2.750   3.213  0.0305 -0.1467  0.0190
 7908PW      WP28659  11.073   2.662   3.157 -0.3697  0.0886  0.2945
 7908PW      WM28660  11.264   2.681   3.140 -0.2042 -0.4529 -0.0172
 7909PW       W28661   6.998   4.826  11.132  0.3195 -0.1707 -0.2027
 7909PW      WP28662   6.966   4.704  11.192  0.1006  0.0484  0.1414
 7909PW      WM28663   7.126   4.849  11.182  0.3486 -0.6121 -0.0526
 7910PW       W28664   1.274   3.141   1.885  0.0293  0.0930  0.2268
 7910PW      WP28665   1.171   3.203   1.812  0.1166 -0.2357 -0.1969
 7910PW      WM28666   1.298   3.004   1.873 -0.2951  0.0475  0.0317
 7911PW       W28667   0.407   4.144   2.088  0.2374 -0.2151 -0.0227
 7911PW      WP28668   0.428   4.058   1.980 -0.5905  0.1515 -0.5290
 7911PW      WM28669   0.340   4.096   2.202 -0.1606 -0.0705 -0.1851
 7912PW       W28670  10.914   8.094   9.208  0.1538  0.5804 -0.3565
 7912PW      WP28671  10.858   8.219   9.239 -0.1077  0.3358  0.2547
 7912PW      WM28672  10.988   8.017   9.118  0.7144  0.4421  0.1923
 7913PW       W28673   8.115   7.307   8.530 -0.0581  0.5364 -0.1292
 7913PW      WP28674   8.004   7.393   8.530 -0.1612  0.4143  0.2688
 7913PW      WM28675   8.241   7.361   8.557  0.2136 -0.1028 -0.0374
 7914PW       W28676  10.099   5.240  11.925 -0.4889  0.2379  0.3112
 7914PW      WP28677  10.001   5.203  11.832 -0.0833  0.4810 -0.2410
 7914PW      WM28678  10.074   5.298  12.050  0.0316  0.6842  0.2282
 7915PW       W28679   2.515   3.217  10.501 -0.3434 -0.0877  0.3476
 7915PW      WP28680   2.419   3.117  10.482  0.1298 -0.5445  0.2533
 7915PW      WM28681   2.535   3.207  10.363 -0.1746  0.4477  0.3192
 7916PW       W28682   1.377   4.185   8.812 -0.3366  0.5580 -0.1286
 7916PW      WP28683   1.491   4.208   8.889 -0.4217 -0.2513  0.2928
 7916PW      WM28684   1.352   4.125   8.688 -0.0136 -0.1515  0.1227
 7917PW       W28685   2.985   0.307  13.171  0.2259 -0.0476  0.3970
 7917PW      WP28686   2.971   0.168  13.182 -0.2250 -0.0213  0.2618
 7917PW      WM28687   2.899   0.412  13.138  0.3518  0.0444  0.3569
 7918PW       W28688   1.414   5.560  10.195  0.2658 -0.1218  0.1453
 7918PW      WP28689   1.540   5.574  10.254  0.1537 -0.1620  0.4017
 7918PW      WM28690   1.356   5.435  10.222 -0.1329  0.0485  0.1116
 7919PW       W28691   1.742   8.443  12.162  0.1622  0.4061 -0.2440
 7919PW      WP28692   1.824   8.554  12.137  0.5703  0.1895  0.0850
 7919PW      WM28693   1.666   8.414  12.048  0.0484  0.1954 -0.1171
 7920PW       W28694   6.223   6.167   9.717 -0.3079 -0.0934  0.0251
 7920PW      WP28695   6.228   6.057   9.803  0.2941 -0.3517 -0.3084
 7920PW      WM28696   6.232   6.298   9.670  0.2289 -0.1584 -0.0869
 7921PW       W28697   4.653   6.396  11.864 -0.0941  0.3566  0.2170
 7921PW      WP28698   4.683   6.530  11.836  0.1445  0.2922  0.1494
 7921PW      WM28699   4.730   6.314  11.948 -0.4526 -0.1456  0.0806
 7922PW       W28700   3.244  11.175  13.195  0.2576  0.1369 -0.0043
 7922PW      WP28701   3.305  11.122  13.308  0.0999  0.5618  0.2926
 7922PW      WM28702   3.105  11.155  13.200  0.2999 -0.3933 -0.4356
 7923PW       W28703   3.583   0.788   1.937  0.1565  0.3254  0.6424
 7923PW      WP28704   3.599   0.654   1.974  0.0921  0.2530  0.4180
 7923PW      WM28705   3.680   0.749   2.031  0.1780 -0.7942  0.2219
 7924PW       W28706   1.464   0.410  12.450  0.1312  0.0332  0.0839
 7924PW      WP28707   1.333   0.458  12.439  0.2280  0.2062 -0.4136
 7924PW      WM28708   1.504   0.298  12.524  0.0131  0.0989  0.2516
 7925PW       W28709   8.952   1.529   4.831 -0.4537  0.2204 -0.0460
 7925PW      WP28710   8.893   1.445   4.736  0.1917 -0.3743  0.0413
 7925PW      WM28711   9.088   1.557   4.844 -0.4533  0.2580 -0.1277
 7926PW       W28712   0.664   0.260  12.548 -0.2716 -0.2500  0.6275
 7926PW      WP28713   0.743   0.144  12.545 -0.1738 -0.1800  0.0282
 7926PW      WM28714   0.568   0.264  12.446  0.3898 -0.2777 -0.0389
 7927PW       W28715   3.605   3.003  11.979  0.2690 -0.2511 -0.2247
 7927PW      WP28716   3.709   2.983  12.070 -0.0335 -0.0711  0.1726
 7927PW      WM28717   3.487   3.073  11.954  0.1393 -0.4568 -0.2025
 7928PW       W28718   2.423   9.040  12.358 -0.0039 -0.2042 -0.0237
 7928PW      WP28719   2.466   9.171  12.380  0.0107 -0.2992  0.6479
 7928PW      WM28720   2.449   9.140  12.264 -0.1620 -0.2896 -0.1603
 7929PW       W28721   6.838   1.016   8.214 -0.4111 -0.1114  0.0398
 7929PW      WP28722   6.874   0.915   8.303  0.0923 -0.0173 -0.0416
 7929PW      WM28723   6.816   1.155   8.215 -0.4329 -0.1144  0.2225
 7930PW       W28724   6.602   6.409   2.386  0.3387 -0.4185 -0.2745
 7930PW      WP28725   6.608   6.355   2.515 -0.0943  0.2464  0.0477
 7930PW      WM28726   6.737   6.442   2.372  0.1545  0.4622 -0.2263
 7931PW       W28727   8.719   8.012   0.864 -0.1780 -0.3782  0.1341
 7931PW      WP28728   8.634   8.027   0.754  0.0190 -0.3408 -0.0159
 7931PW      WM28729   8.830   7.950   0.804 -0.2855 -0.3228 -0.1314
 7932PW       W28730   4.713   2.181  12.060  0.1013 -0.1161  0.0357
 7932PW      WP28731   4.648   2.142  12.178  0.0524 -0.0402  0.0334
 7932PW      WM28732   4.663   2.246  12.173  0.0436 -0.3650  0.1569
 7933PW       W28733   7.518   5.435   3.562 -0.0736  0.2502  0.1953
 7933PW      WP28734   7.636   5.368   3.596  0.2073  0.5008 -0.2319
 7933PW      WM28735   7.402   5.513   3.561  0.0092  0.4088  0.8239
 7934PW       W28736   6.777   4.287   1.429  0.1002  0.4044 -0.3000
 7934PW      WP28737   6.804   4.423   1.449 -0.1753  0.5635 -0.8934
 7934PW      WM28738   6.825   4.352   1.315  0.0296  0.5898 -0.2270
 7935PW       W28739   8.459   4.836   0.756  0.2301 -0.4011 -0.1096
 7935PW      WP28740   8.412   4.704   0.748 -0.0786 -0.3395  0.4247
 7935PW      WM28741   8.348   4.895   0.695  0.5031 -0.0798 -0.3135
 7936PW       W28742   5.773   9.504   4.063  0.4923 -0.0384  0.0202
 7936PW      WP28743   5.782   9.636   4.109 -0.1419  0.0223  0.0166
 7936PW      WM28744   5.662   9.547   3.990  0.6149  0.2620  0.0033
 7937PW       W28745   2.689  10.868   1.158  0.3042  0.3344  0.0366
 7937PW      WP28746   2.664  10.798   1.276 -0.3553  0.1757 -0.1738
 7937PW      WM28747   2.809  10.835   1.093  0.2488  0.3492 -0.0745
 7938PW       W28748   7.335   7.565   5.271 -0.0177  0.0681  0.2622
 7938PW      WP28749   7.294   7.614   5.146  0.0217 -0.2908  0.1046
 7938PW      WM28750   7.462   7.514   5.296  0.0012 -0.0336 -0.0245
 7939PW       W28751   1.224   7.408   0.043 -0.0332 -0.0033 -0.4301
 7939PW      WP28752   1.120   7.483   0.100  0.1481 -0.2832  0.3230
 7939PW      WM28753   1.275   7.413  -0.087 -0.0477  0.0374 -0.4340
 7940PW       W28754   0.478   9.609   1.656  0.1027 -0.1110 -0.3218
 7940PW      WP28755   0.435   9.527   1.761 -0.2072 -0.1685 -0.4895
 7940PW      WM28756   0.434   9.731   1.604 -0.1245  0.0739  0.2621
 7941PW       W28757   1.500   9.829   4.497  0.0602 -0.0659  0.0564
 7941PW      WP28758   1.461   9.738   4.596 -0.2202 -0.4825 -0.4122
 7941PW      WM28759   1.400   9.927   4.491 -0.2326 -0.3234  0.4625
 7942PW       W28760   9.107   4.815   2.886 -0.7591  0.1858  0.4242
 7942PW      WP28761   9.067   4.717   2.794  0.4625  0.3883 -0.4447
 7942PW      WM28762   9.174   4.881   2.990 -0.2232  0.1015  0.1459
 7943PW       W28763   8.453   7.031  10.256  0.5871 -0.7572  0.3812
 7943PW      WP28764   8.570   7.092  10.212  0.2327 -0.4315 -0.1780
 7943PW      WM28765   8.344   7.055  10.341  0.2783 -0.3008 -0.1088
 7944PW       W28766   2.401  10.837  12.841 -0.2422 -0.1985 -0.0968
 7944PW      WP28767   2.333  10.937  12.912 -0.0383  0.2160 -0.4607
 7944PW      WM28768   2.436  10.722  12.913  0.2062  0.1652  0.3000
 7945PW       W28769   8.519   9.923  11.300 -0.2959  0.0069 -0.0809
 7945PW      WP28770   8.577  10.029  11.230 -0.0007 -0.0322  0.0980
 7945PW      WM28771   8.453  10.033  11.357  0.0983 -0.0419  0.5096
 7946PW       W28772   2.143   8.179   0.256 -0.3006  0.0957  0.0352
 7946PW      WP28773   2.061   8.073   0.297 -0.0696 -0.1552 -0.1337
 7946PW      WM28774   2.250   8.204   0.343 -0.4404  0.9119  0.0203
 7947PW       W28775   6.898   1.419  10.802 -0.1264 -0.2601  0.0722
 7947PW      WP28776   6.829   1.318  10.870 -0.2427 -0.1116  0.1790
 7947PW      WM28777   6.808   1.522  10.770  0.4531  0.4019  0.4376
 7948PW       W28778   1.191   9.534   3.678 -0.2694  0.2747  0.0577
 7948PW      WP28779   1.213   9.404   3.726  0.1243  0.3490  0.1009
 7948PW      WM28780   1.327   9.500   3.684 -0.3048  0.0546 -0.2375
 7949PW       W28781   1.681   7.725  11.389 -0.3808  0.0652  0.1997
 7949PW      WP28782   1.562   7.681  11.449 -0.0740 -0.2175  0.6340
 7949PW      WM28783   1.622   7.739  11.263 -0.0030  0.9344  0.0876
 7950PW       W28784   8.270  10.011   3.628  0.0384  0.0835 -0.1434
 7950PW      WP28785   8.233   9.880   3.593 -0.0330  0.0729 -0.0312
 7950PW      WM28786   8.219  10.141   3.617  0.1572  0.1356 -0.0834
 7951PW       W28787   1.111   5.377  13.033  0.1392 -0.0914 -0.5450
 7951PW      WP28788   0.997   5.298  13.052  0.1958  0.0247  0.5454
 7951PW      WM28789   1.007   5.464  12.997 -0.0265  0.0825  0.2557
 7952PW       W28790   7.729  10.531   3.369  0.0401  0.0926 -0.2947
 7952PW      WP28791   7.829  10.439   3.336 -0.0575 -0.0555 -0.1853
 7952PW      WM28792   7.765  10.666   3.374 -0.1132  0.1280  0.0181
 7953PW       W28793  10.681   7.362   8.577  0.0041 -0.3092 -0.5052
 7953PW      WP28794  10.749   7.460   8.502  0.0586 -0.3342 -0.4890
 7953PW      WM28795  10.619   7.248   8.525  0.5659 -0.6026 -0.5701
 7954PW       W28796   0.076   8.309   9.195 -0.0379  0.4406  0.0006
 7954PW      WP28797   0.058   8.213   9.094 -0.0260  0.0971  0.3156
 7954PW      WM28798   0.127   8.381   9.086  0.5872 -0.0208 -0.0397
 7955PW       W28799   1.868   2.480   2.846  0.3266  0.2587 -0.1087
 7955PW      WP28800   1.803   2.356   2.848  0.3577  0.2418 -0.1332
 7955PW      WM28801   1.781   2.499   2.738  0.0618 -0.0257  0.0442
 7956PW       W28802  10.118   5.059   4.955 -0.1215 -0.0958  0.3820
 7956PW      WP28803  10.169   4.955   5.033 -0.3699 -0.4096  0.1416
 7956PW      WM28804  10.047   5.143   4.868 -0.3745 -0.2662  0.4184
 7957PW       W28805   0.407   1.271  13.322 -0.1076  0.5514  0.3973
 7957PW      WP28806   0.514   1.240  13.237 -0.5830 -0.9654  0.1939
 7957PW      WM28807   0.396   1.142  13.374  0.4143  0.2399 -0.1973
 7958PW       W28808   8.572   5.826   9.174  0.0101 -0.2801 -0.2311
 7958PW      WP28809   8.508   5.777   9.288 -0.0015  0.2781  0.0207
 7958PW      WM28810   8.712   5.835   9.173 -0.0054  0.0478 -0.4729
 7959PW       W28811   5.307   8.664   8.753  0.2336  0.6971  0.0770
 7959PW      WP28812   5.319   8.560   8.846 -0.1808  0.2092 -0.3826
 7959PW      WM28813   5.282   8.699   8.619 -0.4924  0.0392  0.0083
 7960PW       W28814   7.410   3.887   2.338 -0.0332 -0.3619  0.2857
 7960PW      WP28815   7.401   3.916   2.201  0.1723  0.3135  0.3980
 7960PW      WM28816   7.530   3.815   2.343  0.1511 -0.0646  0.2246
 7961PW       W28817   0.414   3.547   0.457 -0.4533  0.2954 -0.1793
 7961PW      WP28818   0.452   3.611   0.339  0.1122  0.2542 -0.0382
 7961PW      WM28819   0.369   3.449   0.546  0.3588  0.1745  0.1431
 7962PW       W28820   3.504   1.531   1.484 -0.4048  0.0697  0.0606
 7962PW      WP28821   3.576   1.494   1.598 -0.1813 -0.0140 -0.1043
 7962PW      WM28822   3.455   1.601   1.596 -0.1673  0.4309 -0.0529
 7963PW       W28823   0.345   7.082   2.651 -0.0545  0.3375 -0.1911
 7963PW      WP28824   0.309   7.099   2.785 -0.3296 -0.2606 -0.1717
 7963PW      WM28825   0.292   7.054   2.524  0.0582  0.1489 -0.1983
 7964PW       W28826   0.550   4.280   2.572 -0.4128  0.5215  0.1608
 7964PW      WP28827   0.528   4.205   2.688 -0.3002  0.2412  0.0053
 7964PW      WM28828   0.604   4.378   2.489 -0.0073  0.1970  0.0265
 7965PW       W28829   4.658   5.943   8.907  0.2004 -0.0247  0.1068
 7965PW      WP28830   4.731   5.837   8.962 -0.0465 -0.3375 -0.1465
 7965PW      WM28831   4.711   5.955   8.778 -0.2999 -0.1998 -0.1287
 7966PW       W28832   3.229   8.326   8.974 -0.2075  0.1939 -0.1132
 7966PW      WP28833   3.277   8.439   8.906  0.2746  0.0451 -0.0406
 7966PW      WM28834   3.321   8.330   9.079 -0.3123 -0.3216  0.0133
 7967PW       W28835   7.804   9.622   0.211 -0.4566 -0.2693 -0.5792
 7967PW      WP28836   7.727   9.738   0.205  0.0084  0.1046  0.0612
 7967PW      WM28837   7.770   9.497   0.265  0.2721 -0.2543 -0.0037
 7968PW       W28838   2.069  11.361   2.132 -0.1469  0.3044 -0.0357
 7968PW      WP28839   2.204  11.372   2.169 -0.1168 -0.0476 -0.0185
 7968PW      WM28840   2.053  11.244   2.207 -0.0487  0.2981 -0.0232
 7969PW       W28841   1.644  10.814  10.507 -0.1851 -0.2973  0.1902
 7969PW      WP28842   1.640  10.691  10.574 -0.3263 -0.1105  0.5391
 7969PW      WM28843   1.607  10.946  10.536 -0.0543 -0.2059 -0.0530
 7970PW       W28844   3.577   4.416   3.602  0.1684 -0.0260 -0.1228
 7970PW      WP28845   3.592   4.337   3.488  0.0162 -0.3161  0.0525
 7970PW      WM28846   3.545   4.548   3.637  0.3836  0.0177 -0.0827
 7971PW       W28847   2.650   2.413   8.352 -0.3941 -0.1053  0.0267
 7971PW      WP28848   2.649   2.537   8.417  0.2045  0.0640 -0.2497
 7971PW      WM28849   2.601   2.287   8.389  0.4908 -0.4605  0.1128
 7972PW       W28850   8.131   3.863  10.897 -0.7855  0.0309 -0.4308
 7972PW      WP28851   8.181   3.994  10.894 -0.1095 -0.1861  0.1152
 7972PW      WM28852   8.021   3.911  10.970  0.0333  0.7424  0.4701
 7973PW       W28853   5.300   0.039  11.859  0.1908  0.1317 -0.0261
 7973PW      WP28854   5.331   0.108  11.977 -0.0972 -0.1932  0.2538
 7973PW      WM28855   5.187  -0.003  11.788  0.0243  0.1860  0.1989
 7974PW       W28856   5.745   7.554  11.483 -0.2087 -0.3788  0.1193
 7974PW      WP28857   5.835   7.519  11.584  0.1150 -0.0602 -0.0501
 7974PW      WM28858   5.650   7.569  11.585 -0.3276  0.4345 -0.0759
 7975PW       W28859   6.639   6.135   8.249 -0.4462 -0.0756  0.2060
 7975PW      WP28860   6.503   6.108   8.269 -0.4984 -0.1277 -0.1856
 7975PW      WM28861   6.609   6.009   8.302  0.0997 -0.1796  0.2967
 7976PW       W28862   3.396   6.301   8.954 -0.1711 -0.0981 -0.2797
 7976PW      WP28863   3.330   6.256   8.840 -0.1427  0.1762 -0.4068
 7976PW      WM28864   3.442   6.329   9.084  0.0994 -0.0278 -0.3868
 7977PW       W28865   2.820   9.441  12.400  0.0606 -0.1259  0.1837
 7977PW      WP28866   2.754   9.398  12.284 -0.0830  0.2863  0.1047
 7977PW      WM28867   2.946   9.500  12.419 -0.1508  0.1779  0.7657
 7978PW       W28868   9.290   3.377   1.542 -0.1334  0.0689 -0.1625
 7978PW      WP28869   9.170   3.367   1.471 -0.0425 -0.6072 -0.2499
 7978PW      WM28870   9.295   3.395   1.681 -0.2156  0.3503 -0.1919
 7979PW       W28871  10.458  10.589   5.584  0.1853  0.1501 -0.0020
 7979PW      WP28872  10.351  10.642   5.511  0.0731  0.2377  0.2194
 7979PW      WM28873  10.548  10.533   5.493 -0.1694 -0.0611 -0.2329
 7980PW       W28874   7.311   3.582  12.812  0.0109 -0.1021 -0.1534
 7980PW      WP28875   7.250   3.475  12.745  0.2919 -0.1909 -0.2727
 7980PW      WM28876   7.428   3.622  12.748  0.2784 -0.1016  0.3192
 7981PW       W28877  11.874   0.894   1.944  0.0737  0.1909  0.3981
 7981PW      WP28878  11.892   0.774   2.013 -0.0265 -0.0024  0.0946
 7981PW      WM28879  11.901   0.979   2.053 -0.0122  0.2501  0.3740
 7982PW       W28880   8.625   9.476  12.149  0.2568  0.2877 -0.0215
 7982PW      WP28881   8.635   9.532  12.277  0.0709 -0.2393  0.2395
 7982PW      WM28882   8.605   9.339  12.129 -0.1070  0.2056  0.7312
 7983PW       W28883   8.887  11.750   3.955 -0.1258  0.5757 -0.6161
 7983PW      WP28884   8.772  11.740   3.876 -0.3033 -0.3321 -0.2950
 7983PW      WM28885   9.016  11.703   3.924 -0.2413 -0.3784  0.1293
 7984PW       W28886   7.279   8.114   0.127 -0.5272  0.1996  0.2014
 7984PW      WP28887   7.225   8.020   0.039 -0.3805  0.1333  0.1798
 7984PW      WM28888   7.400   8.140   0.061 -0.9084  0.1277 -0.5744
 7985PW       W28889   4.224  10.067   0.238 -0.3844  0.0390  0.1659
 7985PW      WP28890   4.334  10.030   0.316  0.0767  0.0202 -0.4515
 7985PW      WM28891   4.107  10.034   0.170 -0.1122  0.1499 -0.3842
 7986PW       W28892   8.723   9.098  10.796 -0.0781 -0.0819  0.1093
 7986PW      WP28893   8.696   9.219  10.859  0.6182  0.2431 -0.1564
 7986PW      WM28894   8.803   9.147  10.900  0.0198  0.1186 -0.0563
 7987PW       W28895   7.141  11.745   3.079 -0.1341 -0.0940 -0.5105
 7987PW      WP28896   7.056  11.848   3.122  0.0037 -0.3266  0.4535
 7987PW      WM28897   7.101  11.760   2.946  0.1081  0.7592 -0.5194
 7988PW       W28898   0.073   0.789  12.931 -0.3055 -0.1632  0.1040
 7988PW      WP28899   0.035   0.783  13.066 -0.1338  0.0901  0.1668
 7988PW      WM28900   0.150   0.705  12.848 -0.4312 -0.0653 -0.1157
 7989PW       W28901   6.082   5.057   4.500  0.0561 -0.1746 -0.0949
 7989PW      WP28902   6.157   4.997   4.602 -0.0715  0.1331  0.1919
 7989PW      WM28903   6.061   5.184   4.555 -0.2916 -0.3558  0.2160
 7990PW       W28904   0.352   9.280   9.172 -0.2654 -0.2006  0.2864
 7990PW      WP28905   0.276   9.336   9.069  0.4343  0.3519  0.0282
 7990PW      WM28906   0.334   9.199   9.285  0.2104 -0.2365  0.3453
 7991PW       W28907  10.334   5.556   2.692 -0.0739 -0.2218 -0.2531
 7991PW      WP28908  10.309   5.591   2.825  0.0146  0.5557 -0.4148
 7991PW      WM28909  10.424   5.656   2.731  0.0507 -0.2648 -0.4258
 7992PW       W28910   7.642   9.949   3.291  0.1756  0.1341 -0.2114
 7992PW      WP28911   7.530   9.927   3.211  0.1340  0.0253 -0.1238
 7992PW      WM28912   7.597  10.052   3.374 -0.3535  0.0674 -0.3981
 7993PW       W28913   1.047   7.168   0.478  0.1815 -0.0760 -0.0979
 7993PW      WP28914   0.966   7.282   0.478  0.2798 -0.0046 -0.2155
 7993PW      WM28915   1.184   7.145   0.456  0.3491  0.3366  0.4083
 7994PW       W28916   8.512   2.354   9.905 -0.2517 -0.1361  0.1863
 7994PW      WP28917   8.521   2.484   9.956  0.0867 -0.1665  0.2218
 7994PW      WM28918   8.423   2.341   9.798 -0.1084  0.1506  0.0273
 7995PW       W28919   8.672   1.871   1.171 -0.3231  0.2610 -0.3904
 7995PW      WP28920   8.768   1.844   1.073 -0.2115 -0.1196 -0.1864
 7995PW      WM28921   8.605   1.813   1.279 -0.1284  0.2033 -0.2997
 7996PW       W28922  11.298   4.012   3.045 -0.0769 -0.0163  0.0476
 7996PW      WP28923  11.327   3.958   2.919  0.3859 -0.2209  0.2335
 7996PW      WM28924  11.349   4.136   3.084 -0.2361 -0.0105  0.2438
 7997PW       W28925   0.404   8.294   0.559 -0.0487  0.1318  0.0575
 7997PW      WP28926   0.518   8.368   0.528 -0.0749  0.1415 -0.0168
 7997PW      WM28927   0.465   8.172   0.593  0.1886  0.3287  0.3649
 7998PW       W28928   1.153   5.470   2.180  0.0737 -0.1630  0.2061
 7998PW      WP28929   1.140   5.331   2.166  0.0805 -0.1221 -0.2902
 7998PW      WM28930   1.184   5.606   2.194 -0.2135 -0.1023  0.2845
 7999PW       W28931   2.855  11.038  12.891  0.0268 -0.0061 -0.0082
 7999PW      WP28932   2.832  11.023  12.754 -0.1857 -0.1196  0.0381
 7999PW      WM28933   2.745  11.119  12.921 -0.3261 -0.5179  0.1477
 8000PW       W28934   4.227  10.251   1.849 -0.4624  0.0669  0.1622
 8000PW      WP28935   4.310  10.363   1.855 -0.0341 -0.2439  0.2344
 8000PW      WM28936   4.131  10.235   1.748  0.0178 -0.7936 -0.2129
 8001PW       W28937  11.311  11.586  11.089  0.4639 -0.3379 -0.2145
 8001PW      WP28938  11.310  11.724  11.108 -0.0360 -0.3863  0.2139
 8001PW      WM28939  11.188  11.613  11.149  0.5839  0.1542 -0.1707
 8002PW       W28940   7.295   6.706  11.583  0.2284 -0.2021 -0.2877
 8002PW      WP28941   7.184   6.671  11.506  0.2915 -0.2969 -0.3362
 8002PW      WM28942   7.423   6.652  11.600  0.3562  0.1585 -0.0363
 8003PW       W28943   7.721   6.052   3.132  0.0561 -0.1096 -0.2702
 8003PW      WP28944   7.821   5.956   3.115 -0.1824 -0.4087 -0.0386
 8003PW      WM28945   7.600   5.986   3.106  0.1689 -0.2968 -0.3302
 8004PW       W28946   0.757   6.561   0.220  0.1236  0.1875  0.0188
 8004PW      WP28947   0.668   6.606   0.122  0.1663  0.3919  0.0702
 8004PW      WM28948   0.850   6.459   0.202 -0.1121  0.0038 -0.1949
 8005PW       W28949   4.462   7.512   3.784 -0.3679 -0.0034 -0.7096
 8005PW      WP28950   4.557   7.542   3.685 -0.2623 -0.0036 -0.6099
 8005PW      WM28951   4.343   7.567   3.834 -0.0468 -0.0134  0.1560
 8006PW       W28952   4.747  11.428   0.314  0.1589 -0.1281 -0.3561
 8006PW      WP28953   4.883  11.457   0.332  0.1143 -0.1634  0.1148
 8006PW      WM28954   4.675  11.392   0.429 -0.1709  0.2081 -0.4482
 8007PW       W28955  10.818   7.763   2.460 -0.3781  0.2077 -0.2391
 8007PW      WP28956  10.843   7.866   2.552  0.1098 -0.1453  0.0511
 8007PW      WM28957  10.734   7.740   2.351 -0.1780  0.3692 -0.4296
 8008PW       W28958   8.992   9.097   2.580  0.0774 -0.2109 -0.2781
 8008PW      WP28959   8.980   9.224   2.522  0.1990 -0.0648  0.0094
 8008PW      WM28960   8.940   8.999   2.494  0.1160 -0.0315 -0.5125
 8009PW       W28961  10.453   2.045   0.989 -0.0694  0.2825  0.0470
 8009PW      WP28962  10.384   2.165   0.969  0.2923  0.4520 -0.2436
 8009PW      WM28963  10.538   2.061   1.099  0.2612  0.1976 -0.1881
 8010PW       W28964   5.785  10.074   1.234  0.4331  0.3095  0.0828
 8010PW      WP28965   5.829  10.036   1.107 -0.2358 -0.5795  0.0663
 8010PW      WM28966   5.677   9.989   1.259  0.3330  0.3315 -0.2524
 8011PW       W28967   1.171   1.205  11.079 -0.2360 -0.2091 -0.3160
 8011PW      WP28968   1.280   1.120  11.055  0.2135  0.0716  0.5103
 8011PW      WM28969   1.256   1.310  11.041  0.0195  0.1077  0.8892
 8012PW       W28970   0.366   6.753  -0.011 -0.0546 -0.1804 -0.0156
 8012PW      WP28971   0.289   6.857   0.041  0.4830  0.3625 -0.2492
 8012PW      WM28972   0.490   6.687  -0.013  0.3177  0.4848 -0.3239
 8013PW       W28973  11.857  11.600  13.329  0.2640  0.0934 -0.2625
 8013PW      WP28974  11.752  11.567  13.244 -0.1065  0.0417  0.1948
 8013PW      WM28975  11.980  11.540  13.359  0.1380 -0.1444 -0.2152
 8014PW       W28976   0.533  11.536   4.420  0.2650 -0.7611  0.1774
 8014PW      WP28977   0.642  11.616   4.382 -0.1583 -0.3581 -0.2431
 8014PW      WM28978   0.480  11.466   4.311 -0.0708 -0.2815  0.0173
 8015PW       W28979   3.784   8.113   0.523 -0.4306  0.1610 -0.0579
 8015PW      WP28980   3.787   8.145   0.387 -0.1415  0.0349 -0.0850
 8015PW      WM28981   3.751   7.986   0.475 -0.3059  0.1722 -0.1772
 8016PW       W28982   9.830   9.021  12.765  0.0281  0.1830  0.2586
 8016PW      WP28983   9.961   8.998  12.720  0.1674  0.0130  0.7188
 8016PW      WM28984   9.729   9.112  12.797 -0.2036 -0.0201  0.1151
 8017PW       W28985  10.849   9.813  10.481  0.4723  0.3542 -0.3843
 8017PW      WP28986  10.792   9.932  10.435  0.1366  0.2459 -0.2589
 8017PW      WM28987  10.912   9.821  10.606 -0.4953 -0.2595  0.2009
 8018PW       W28988   9.600   5.640   2.672  0.1462  0.2461 -0.2636
 8018PW      WP28989   9.591   5.607   2.537 -0.1886  0.0274 -0.1929
 8018PW      WM28990   9.498   5.647   2.767  0.2959  0.5364 -0.1179
 8019PW       W28991  10.143   4.704   1.350 -0.0780 -0.2266  0.3305
 8019PW      WP28992  10.052   4.636   1.431  0.3081 -0.4461  0.5986
 8019PW      WM28993  10.074   4.709   1.229  0.1833 -0.0823  0.1849
 8020PW       W28994   3.388   4.624   1.187 -0.1221 -0.0863  0.2930
 8020PW      WP28995   3.428   4.558   1.070  0.3049  0.2326  0.2448
 8020PW      WM28996   3.489   4.659   1.277 -0.0415  0.2122  0.0956
 8021PW       W28997   8.843   3.404  11.485 -0.2659  0.2086  0.1461
 8021PW      WP28998   8.769   3.311  11.559 -0.2006 -0.2229 -0.3060
 8021PW      WM28999   8.880   3.379  11.352  0.0435 -0.0356  0.2714
 8022PW       W29000   6.664  10.934   9.016 -0.0481  0.6679  0.2648
 8022PW      WP29001   6.654  10.864   9.137  0.1781 -0.1345 -0.1404
 8022PW      WM29002   6.726  10.961   8.894 -0.0535  0.2715  0.1664
 8023PW       W29003   6.711   6.868   2.709  0.1675  0.0782  0.3548
 8023PW      WP29004   6.831   6.876   2.779  0.2182 -0.8548  0.4301
 8023PW      WM29005   6.650   6.930   2.598 -0.0317  0.1331  0.4913
 8024PW       W29006  -0.035  12.062   0.073 -0.3259 -0.3941  0.2375
 8024PW      WP29007  -0.047  12.070  -0.066 -0.4609 -0.0293  0.2634
 8024PW      WM29008   0.099  12.073   0.111 -0.2162 -0.1175 -0.1933
 8025PW       W29009   9.083   4.596   1.059 -0.1687 -0.0320 -0.0523
 8025PW      WP29010   9.011   4.483   1.017  0.0405 -0.2176  0.0735
 8025PW      WM29011   9.037   4.698   0.975  0.0751 -0.0055 -0.1576
 8026PW       W29012   8.300   3.556   8.737 -0.1823 -0.4734  0.1462
 8026PW      WP29013   8.202   3.489   8.662  0.1901 -0.5778 -0.2727
 8026PW      WM29014   8.241   3.614   8.850 -0.1038 -0.5181  0.2102
 8027PW       W29015   4.556   1.630   8.786  0.2897  0.1753 -0.2755
 8027PW      WP29016   4.427   1.661   8.741  0.2880  0.1001 -0.3236
 8027PW      WM29017   4.680   1.571   8.813  0.2287 -0.0914 -0.5433
 8028PW       W29018   5.614  11.113   0.896  0.3767 -0.1802  0.0549
 8028PW      WP29019   5.548  11.085   1.016  0.1421 -0.1152 -0.0556
 8028PW      WM29020   5.689  11.175   0.996 -0.6342  0.2980  0.5924
 8029PW       W29021   7.482  11.496   2.751 -0.4169 -0.2137 -0.0625
 8029PW      WP29022   7.566  11.523   2.642  0.0336 -0.1957  0.2719
 8029PW      WM29023   7.388  11.566   2.674 -0.0093 -0.0190 -0.4096
 8030PW       W29024   8.162   1.044   2.829 -0.2430 -0.3420 -0.3858
 8030PW      WP29025   8.273   0.982   2.769  0.1281  0.1517 -0.2482
 8030PW      WM29026   8.274   1.127   2.813 -0.1190 -0.5239 -0.4775
 8031PW       W29027   4.215  10.632   0.108 -0.2332 -0.1404 -0.0800
 8031PW      WP29028   4.205  10.747   0.028 -0.2500 -0.1141 -0.0406
 8031PW      WM29029   4.183  10.749   0.179 -0.2023 -0.4059  0.3901
 8032PW       W29030   1.916   6.468  10.266  0.1642  0.0064 -0.2948
 8032PW      WP29031   1.800   6.526  10.317  0.1246 -0.3483  0.0384
 8032PW      WM29032   1.857   6.503  10.388  0.1864 -0.4187 -0.1530
 8033PW       W29033   3.448   6.929   1.972  0.0496  0.3584  0.0881
 8033PW      WP29034   3.443   6.883   1.840 -0.1450 -0.6616  0.4090
 8033PW      WM29035   3.496   6.892   2.098  0.5080 -0.0952 -0.2013
 8034PW       W29036  11.143   6.756   2.680 -0.0209 -0.0287 -0.3696
 8034PW      WP29037  11.025   6.706   2.625 -0.1721  0.2976 -0.3521
 8034PW      WM29038  11.216   6.874   2.704  0.0438 -0.1001 -0.2086
 8035PW       W29039   1.573   9.385   9.749 -0.3590 -0.0374 -0.0777
 8035PW      WP29040   1.476   9.338   9.659 -0.3683 -0.3088  0.0665
 8035PW      WM29041   1.686   9.385   9.666 -0.2687  0.4502  0.0324
 8036PW       W29042   4.922  10.857   8.343 -0.4118 -0.0836 -0.0732
 8036PW      WP29043   4.923  10.733   8.278 -0.5653 -0.1763  0.0988
 8036PW      WM29044   4.918  10.922   8.467 -0.0593 -0.7356  0.3069
 8037PW       W29045   3.388   7.166  11.577  0.6475 -0.1331  0.0399
 8037PW      WP29046   3.374   7.303  11.602 -0.2905 -0.1472 -0.2434
 8037PW      WM29047   3.387   7.227  11.451  0.1343 -0.0133  0.0917
 8038PW       W29048   6.549   4.834  10.062 -0.0293  0.1465  0.2024
 8038PW      WP29049   6.675   4.784  10.095 -0.1835 -0.3175  0.1284
 8038PW      WM29050   6.500   4.965  10.069 -0.5776 -0.0183 -0.1652
 8039PW       W29051   5.895   4.522   5.490  0.1152  0.1214  0.0940
 8039PW      WP29052   5.909   4.388   5.452 -0.1566  0.0973  0.0678
 8039PW      WM29053   5.767   4.493   5.541 -0.3377  0.3855 -0.7948
 8040PW       W29054   7.414   2.778  11.965 -0.3445  0.0375  0.2366
 8040PW      WP29055   7.297   2.730  11.904 -0.2952  0.1739  0.0305
 8040PW      WM29056   7.503   2.863  12.032  0.0615 -0.0829 -0.1310
 8041PW       W29057   4.975   6.744   0.698  0.1361  0.0670  0.1109
 8041PW      WP29058   5.008   6.856   0.622 -0.1621 -0.1735 -0.4006
 8041PW      WM29059   5.034   6.772   0.822  0.5259 -0.3371  0.0324
 8042PW       W29060   2.544  11.249  13.278 -0.4334 -0.2319  0.0168
 8042PW      WP29061   2.468  11.364  13.258  0.3288  0.3576  0.2701
 8042PW      WM29062   2.547  11.249  13.418  0.4062  0.0523  0.0248
 8043PW       W29063   8.865   5.727   8.280 -0.1795  0.1391  0.4862
 8043PW      WP29064   8.965   5.807   8.337 -0.0048  0.4325 -0.1891
 8043PW      WM29065   8.854   5.691   8.415 -0.0973 -0.2838  0.3866
 8044PW       W29066  11.026   7.327   3.894  0.1970 -0.0732 -0.2402
 8044PW      WP29067  11.032   7.411   4.005  0.0230 -0.1960 -0.1346
 8044PW      WM29068  10.946   7.404   3.808  0.3456 -0.0744 -0.3829
 8045PW       W29069   5.768   6.277   3.256  0.4605 -0.1419 -0.3776
 8045PW      WP29070   5.822   6.392   3.315  0.1164  0.0480 -0.4238
 8045PW      WM29071   5.653   6.321   3.192 -0.2424 -0.6405  0.4292
 8046PW       W29072   9.330   5.489   1.476  0.3175 -0.1871  0.0406
 8046PW      WP29073   9.354   5.352   1.490  0.3286 -0.1500  0.4269
 8046PW      WM29074   9.402   5.515   1.358  0.2068 -0.1135 -0.0119
 8047PW       W29075   5.334   5.276   2.187  0.1223 -0.1631 -0.0844
 8047PW      WP29076   5.246   5.292   2.295  0.1593 -0.4804 -0.0010
 8047PW      WM29077   5.336   5.139   2.218 -0.5037 -0.1391  0.1416
 8048PW       W29078   2.714   1.240   3.674 -0.0615  0.1898  0.2124
 8048PW      WP29079   2.701   1.342   3.769  0.0101  0.3879  0.0125
 8048PW      WM29080   2.673   1.203   3.546  0.1002  0.1508  0.1711
 8049PW       W29081   7.669   3.179  10.663  0.3093 -0.0665 -0.0191
 8049PW      WP29082   7.649   3.107  10.545  0.1045 -0.2484  0.1226
 8049PW      WM29083   7.788   3.221  10.601  0.0422  0.3660 -0.2667
 8050PW       W29084   0.482  11.745   5.370  0.4585 -0.1947  0.0106
 8050PW      WP29085   0.453  11.705   5.239  0.3942  0.3939 -0.1685
 8050PW      WM29086   0.519  11.642   5.284  0.0157 -0.2418 -0.1396
 8051PW       W29087   1.546   4.499   9.184  0.2792  0.3459  0.2956
 8051PW      WP29088   1.676   4.551   9.191  0.5513 -0.1605 -0.3442
 8051PW      WM29089   1.541   4.445   9.313 -0.0654  0.6754  0.4296
 8052PW       W29090   4.082   1.880   9.961 -0.3737 -0.0019 -0.4005
 8052PW      WP29091   4.198   1.924  10.026 -0.6109 -0.0215  0.0532
 8052PW      WM29092   3.986   1.977   9.993 -0.1273 -0.0181  0.5589
 8053PW       W29093   3.055  10.008   2.709  0.1955  0.2228 -0.3550
 8053PW      WP29094   2.969   9.919   2.775  0.1957  0.3048 -0.2430
 8053PW      WM29095   3.184  10.012   2.656  0.2340 -0.0029 -0.2845
 8054PW       W29096   2.411   4.260  12.687  0.2640 -0.2335 -0.2799
 8054PW      WP29097   2.491   4.172  12.762  0.7205  0.3858  0.0099
 8054PW      WM29098   2.328   4.164  12.628 -0.3629 -0.1167  0.3423
 8055PW       W29099  11.404   4.270   9.239  0.2883  0.2335  0.0680
 8055PW      WP29100  11.471   4.157   9.288  0.3244  0.1325 -0.2054
 8055PW      WM29101  11.284   4.198   9.240  0.4480 -0.0419 -0.0519
 8056PW       W29102   8.540   3.665  11.182  0.1196  0.1546 -0.0090
 8056PW      WP29103   8.524   3.773  11.270 -0.1838 -0.1558  0.3345
 8056PW      WM29104   8.576   3.801  11.181  0.2055  0.1338  0.1501
 8057PW       W29105   4.997  10.988   0.311  0.4166 -0.2170 -0.2393
 8057PW      WP29106   5.053  10.861   0.298  0.0024 -0.4987  0.4437
 8057PW      WM29107   5.123  11.048   0.297  0.6001 -0.4048  0.4315
 8058PW       W29108   7.176   8.017  11.285  0.1212 -0.6001  0.1242
 8058PW      WP29109   7.163   8.129  11.369 -0.3350 -0.4034 -0.1853
 8058PW      WM29110   7.208   8.148  11.245 -0.7608 -0.4135 -0.0949
 8059PW       W29111   2.739   5.184  11.468 -0.2451  0.0058  0.1505
 8059PW      WP29112   2.672   5.179  11.591 -0.2681  0.3261  0.1533
 8059PW      WM29113   2.761   5.046  11.461  0.5636  0.1139 -0.0216
 8060PW       W29114   2.812   6.054   8.505 -0.5846  0.0055  0.0848
 8060PW      WP29115   2.834   6.181   8.559 -0.0331  0.0065 -0.1137
 8060PW      WM29116   2.808   5.915   8.521 -0.0425 -0.0126  0.1337
 8061PW       W29117   6.848   0.804   3.263  0.2543  0.0639 -0.1937
 8061PW      WP29118   6.840   0.916   3.347 -0.3575 -0.0071 -0.1342
 8061PW      WM29119   6.892   0.731   3.152  0.0449 -0.0121 -0.2288
 8062PW       W29120   5.867   2.981   8.055  0.0086 -0.1506 -0.2739
 8062PW      WP29121   5.961   3.029   8.147 -0.0456  0.2340 -0.4139
 8062PW      WM29122   5.865   2.841   8.045 -0.2552 -0.1836  0.1286
 8063PW       W29123   2.609   1.002  10.205  0.1902 -0.0173 -0.2509
 8063PW      WP29124   2.558   1.076  10.313 -0.2122  0.0532 -0.4774
 8063PW      WM29125   2.710   1.086  10.252  0.1635 -0.0986 -0.0421
 8064PW       W29126   1.909   0.889   8.830 -0.1445 -0.1577 -0.0940
 8064PW      WP29127   2.001   0.791   8.870  0.3531  0.1961 -0.3064
 8064PW      WM29128   1.883   0.978   8.935 -0.0394 -0.1681 -0.0585
 8065PW       W29129  10.598   7.274   0.807 -0.2502  0.1041 -0.1113
 8065PW      WP29130  10.561   7.300   0.674  0.5964  0.0161 -0.3906
 8065PW      WM29131  10.481   7.198   0.821 -0.1948  0.0336 -0.0233
 8066PW       W29132   4.282   3.372   2.471 -0.0681  0.1432  0.1013
 8066PW      WP29133   4.169   3.304   2.518  0.1076 -0.2107  0.0269
 8066PW      WM29134   4.412   3.379   2.522  0.1134 -0.5756 -0.1990
 8067PW       W29135   1.830   5.572   2.006 -0.0815 -0.0067 -0.3459
 8067PW      WP29136   1.910   5.490   2.086  0.3067  0.3270 -0.3811
 8067PW      WM29137   1.818   5.709   2.032  0.1144  0.0361 -0.4765
 8068PW       W29138   6.705  10.212   2.392 -0.0710  0.0795 -0.0557
 8068PW      WP29139   6.679  10.250   2.525 -0.2119 -0.1825 -0.0061
 8068PW      WM29140   6.572  10.173   2.412 -0.1586  0.2584 -0.2773
 8069PW       W29141   2.663   0.165   5.380 -0.1928  0.3629  0.2401
 8069PW      WP29142   2.795   0.203   5.354  0.0369 -0.3876  0.1747
 8069PW      WM29143   2.634   0.141   5.245 -0.2890  0.0714  0.3080
 8070PW       W29144   2.053  10.042   1.637 -0.4279  0.6481 -0.0128
 8070PW      WP29145   2.100  10.151   1.563  0.6005  0.2312 -0.0585
 8070PW      WM29146   2.023  10.013   1.503 -0.0066  0.1082 -0.0067
 8071PW       W29147  10.268   6.186   3.160 -0.1135  0.1316  0.5389
 8071PW      WP29148  10.156   6.162   3.239 -0.3163 -0.2184  0.1648
 8071PW      WM29149  10.338   6.066   3.178  0.3084  0.1696 -0.4625
 8072PW       W29150  11.195   9.244  11.122 -0.3576 -0.5069  0.1549
 8072PW      WP29151  11.137   9.344  11.201  0.3855  0.0322  0.0731
 8072PW      WM29152  11.187   9.240  10.982 -0.1927 -0.3082  0.1376
 8073PW       W29153   3.430   6.031   9.946 -0.1992 -0.0527  0.2272
 8073PW      WP29154   3.472   5.977  10.069 -0.2200 -0.3648  0.1019
 8073PW      WM29155   3.443   5.904   9.888  0.2642  0.0620  0.0524
 8074PW       W29156  12.040   1.209  13.149 -0.4962 -0.1386 -0.2204
 8074PW      WP29157  12.127   1.318  13.133 -0.3668 -0.2535 -0.3161
 8074PW      WM29158  12.042   1.178  13.285  0.1929  0.3066 -0.1043
 8075PW       W29159   3.736   2.422   9.471  0.0343  0.0047  0.2726
 8075PW      WP29160   3.597   2.418   9.464  0.0535 -0.3205 -0.0051
 8075PW      WM29161   3.711   2.292   9.517 -0.2741 -0.0147  0.0619
 8076PW       W29162   7.918   4.273   4.680 -0.0676  0.5572 -0.0546
 8076PW      WP29163   7.793   4.334   4.690 -0.4661 -0.2200  0.0658
 8076PW      WM29164   7.902   4.151   4.612  0.3742  0.1741  0.4737
 8077PW       W29165   6.418   1.538   9.538 -0.4754 -0.1614  0.3580
 8077PW      WP29166   6.495   1.654   9.524  0.0575 -0.4983  0.3697
 8077PW      WM29167   6.358   1.465   9.435  0.0476 -0.0375 -0.0572
 8078PW       W29168   4.701   2.124   9.521  0.4224 -0.1738  0.0860
 8078PW      WP29169   4.602   2.175   9.605  0.1514 -0.0387 -0.2977
 8078PW      WM29170   4.692   2.244   9.592 -0.0501 -0.3429  0.3305
 8079PW       W29171   9.017   2.812  12.679 -0.4750  0.0314  0.0918
 8079PW      WP29172   9.041   2.795  12.816 -0.0833  0.2449  0.0547
 8079PW      WM29173   8.978   2.695  12.746  0.2403 -0.5454 -0.4232
 8080PW       W29174   4.418   8.832   9.214  0.5691 -0.1137 -0.1514
 8080PW      WP29175   4.441   8.966   9.245  0.7008 -0.0884 -0.3494
 8080PW      WM29176   4.369   8.865   9.087  0.4888 -0.0982 -0.1164
 8081PW       W29177  12.037   8.194   2.450 -0.0452  0.3516 -0.1891
 8081PW      WP29178  12.170   8.216   2.410  0.0105  0.6330  0.1284
 8081PW      WM29179  12.025   8.313   2.522  0.1714  0.2552  0.0145
 8082PW       W29180   8.243   5.158  12.419 -0.0210  0.2182 -0.0163
 8082PW      WP29181   8.322   5.266  12.379 -0.1702  0.3581  0.0626
 8082PW      WM29182   8.225   5.203  12.550 -0.0032  0.1767  0.0002
 8083PW       W29183   5.576   3.372  13.025 -0.3376  0.3493  0.5753
 8083PW      WP29184   5.693   3.436  13.067  0.1379  0.0621 -0.2014
 8083PW      WM29185   5.577   3.288  13.137  0.3597 -0.0783  0.2823
 8084PW       W29186  10.233   1.482  10.163 -0.3957 -0.0785  0.1147
 8084PW      WP29187  10.161   1.474  10.282  0.1538 -0.2217  0.4572
 8084PW      WM29188  10.364   1.456  10.207 -0.1530  0.0495 -0.4828
 8085PW       W29189   1.092   2.633   2.614  0.2743  0.1512  0.2037
 8085PW      WP29190   1.016   2.516   2.601  0.1447  0.2163  0.3641
 8085PW      WM29191   1.188   2.697   2.534 -0.0588  0.1419 -0.2206
 8086PW       W29192   4.421   3.095  13.402  0.0543 -0.4138  0.1376
 8086PW      WP29193   4.508   3.197  13.362 -0.5555  0.1532  0.1661
 8086PW      WM29194   4.392   3.061  13.270 -0.1564 -0.7571  0.2665
 8087PW       W29195   6.512   1.519   1.697  0.1403  0.3650  0.1102
 8087PW      WP29196   6.417   1.567   1.606  0.1292 -0.4543 -0.3577
 8087PW      WM29197   6.473   1.460   1.818 -0.3507  0.1732 -0.1292
 8088PW       W29198   6.540   2.630   3.557  0.2178 -0.3943  0.5415
 8088PW      WP29199   6.667   2.632   3.496 -0.0998  0.2158 -0.1790
 8088PW      WM29200   6.447   2.662   3.458  0.4996 -0.5413  0.2168
 8089PW       W29201   2.678  10.428   4.609  0.0608 -0.2651 -0.1407
 8089PW      WP29202   2.682  10.411   4.748  0.0027 -0.6224 -0.1777
 8089PW      WM29203   2.769  10.464   4.510  0.0212  0.1771 -0.0275
 8090PW       W29204   4.324   5.501   0.647  0.1782  0.2254  0.0939
 8090PW      WP29205   4.249   5.604   0.705  0.2108  0.1976  0.1864
 8090PW      WM29206   4.363   5.367   0.658 -0.3763  0.0851  0.6455
 8091PW       W29207   2.961   4.542  10.412  0.5429  0.0765  0.1642
 8091PW      WP29208   2.978   4.678  10.442  0.3198  0.1892 -0.1910
 8091PW      WM29209   3.032   4.610  10.312  0.2587  0.1274 -0.0093
 8092PW       W29210   6.459   1.054   3.072 -0.3116  0.0588  0.0384
 8092PW      WP29211   6.370   1.120   3.157  0.0929  0.1024  0.4469
 8092PW      WM29212   6.499   1.177   3.124  0.0668  0.0759 -0.2711
 8093PW       W29213   3.088   5.168   2.531  0.1311  0.2691 -0.2441
 8093PW      WP29214   3.143   5.143   2.657 -0.4066 -0.9640 -0.1812
 8093PW      WM29215   3.053   5.300   2.563  0.1126  0.1574  0.2347
 8094PW       W29216   4.869   9.423  11.275  0.1166 -0.3641  0.4529
 8094PW      WP29217   4.901   9.339  11.168  0.3344  0.0692  0.1664
 8094PW      WM29218   4.996   9.379  11.313  0.2430 -0.1449  0.2961
 8095PW       W29219   4.597  11.409  11.294 -0.1458  0.3075 -0.1431
 8095PW      WP29220   4.578  11.492  11.183 -0.8869  0.6331  0.1952
 8095PW      WM29221   4.468  11.386  11.245 -0.1385  0.3023 -0.1600
 8096PW       W29222   1.153   7.348  12.052  0.0309 -0.0395 -0.1074
 8096PW      WP29223   1.120   7.223  12.105  0.0418  0.0041  0.0024
 8096PW      WM29224   1.156   7.452  12.146 -0.4703 -0.2756  0.1919
 8097PW       W29225  11.437   6.392   0.570  0.4115 -0.4599 -0.0731
 8097PW      WP29226  11.377   6.310   0.666  0.2197  0.1399  0.3538
 8097PW      WM29227  11.567   6.417   0.615  0.3536 -0.4739  0.1075
 8098PW       W29228   8.381   6.576  10.530 -0.7235 -0.4441  0.0120
 8098PW      WP29229   8.305   6.670  10.600  0.0634  0.4086 -0.1778
 8098PW      WM29230   8.442   6.488  10.439 -0.0116  0.2942 -0.2840
 8099PW       W29231   0.194  10.272   4.369  0.3291  0.0816 -0.2011
 8099PW      WP29232   0.302  10.360   4.357  0.0451  0.4479 -0.1568
 8099PW      WM29233   0.062  10.312   4.349  0.3366  0.2495  0.0618
 8100PW       W29234   5.253   9.099  10.509  0.1288 -0.3997 -0.0286
 8100PW      WP29235   5.228   8.976  10.447 -0.1369 -0.3023 -0.1222
 8100PW      WM29236   5.282   9.154  10.634  0.4121  0.0139 -0.2654
 8101PW       W29237   8.286   7.037   4.164 -0.1047 -0.2228 -0.1078
 8101PW      WP29238   8.361   7.152   4.136 -0.3079 -0.0313  0.1157
 8101PW      WM29239   8.153   7.070   4.137  0.0777  0.4319 -0.2893
 8102PW       W29240  11.942   7.531  10.740 -0.3099  0.1446  0.2435
 8102PW      WP29241  11.983   7.446  10.637 -0.5178  0.4349 -0.0881
 8102PW      WM29242  11.975   7.663  10.706  0.1972 -0.0228  0.0454
 8103PW       W29243   3.653   8.741   4.344  0.0337 -0.0235 -0.0651
 8103PW      WP29244   3.719   8.632   4.285  0.5654  0.2047  0.0829
 8103PW      WM29245   3.736   8.853   4.342  0.1921 -0.1312  0.2232
 8104PW       W29246   6.572   2.650   8.988  0.2149 -0.3805 -0.1023
 8104PW      WP29247   6.622   2.536   9.051 -0.1385 -0.2089  0.5303
 8104PW      WM29248   6.467   2.684   8.902  0.0796 -0.2616  0.1039
 8105PW       W29249   1.525   8.173   2.057  0.1080  0.5713 -0.1261
 8105PW      WP29250   1.483   8.154   1.925 -0.1187 -0.3994  0.0452
 8105PW      WM29251   1.597   8.085   1.975 -0.1074 -0.0357  0.2969
 8106PW       W29252   3.795   6.013  10.981  0.2770 -0.3372 -0.1838
 8106PW      WP29253   3.703   6.081  11.062  0.1670 -0.3042 -0.3356
 8106PW      WM29254   3.713   5.927  10.907 -0.4007 -0.0022  0.1389
 8107PW       W29255  10.279   0.526   1.272 -0.0218 -0.3659 -0.1743
 8107PW      WP29256  10.228   0.655   1.292  0.0687 -0.3873  0.2467
 8107PW      WM29257  10.353   0.595   1.369 -0.2021 -0.0311 -0.2669
 8108PW       W29258   7.954   5.509   4.677  0.1192 -0.3222 -0.0239
 8108PW      WP29259   7.957   5.465   4.809  0.2099  0.1009  0.1239
 8108PW      WM29260   7.922   5.629   4.612  0.3495 -0.2308  0.0276
 8109PW       W29261  11.203   6.692   3.507  0.0146 -0.1343 -0.3183
 8109PW      WP29262  11.104   6.737   3.419 -0.2588 -0.1644 -0.0359
 8109PW      WM29263  11.229   6.554   3.507  0.0945 -0.1272  0.1440
 8110PW       W29264   4.418   0.291   1.015 -0.2951 -0.0421  0.0519
 8110PW      WP29265   4.517   0.353   1.093 -0.2652 -0.2673  0.1990
 8110PW      WM29266   4.411   0.161   0.963  0.4048 -0.2387  0.3900
 8111PW       W29267   1.433   8.616  13.315  0.1542 -0.1905 -0.1534
 8111PW      WP29268   1.435   8.754  13.288 -0.3549 -0.1639 -0.1094
 8111PW      WM29269   1.483   8.486  13.313 -0.1022 -0.2971  0.0206
 8112PW       W29270   5.483   8.783   3.675  0.4387  0.3968  0.0301
 8112PW      WP29271   5.587   8.695   3.707  0.1913  0.2295  0.4124
 8112PW      WM29272   5.463   8.890   3.587  0.3096  0.3064 -0.0515
 8113PW       W29273   5.033   9.496   1.148  0.2765 -0.0031  0.0336
 8113PW      WP29274   5.007   9.611   1.222  0.2302 -0.0881  0.1505
 8113PW      WM29275   4.996   9.532   1.018  0.3185  0.0496  0.0360
 8114PW       W29276   5.430  10.200  12.679 -0.2189 -0.4138  0.2802
 8114PW      WP29277   5.459  10.103  12.776  0.0987 -0.1875  0.4225
 8114PW      WM29278   5.307  10.267  12.675  0.1106  0.2217 -0.1612
 8115PW       W29279  10.405   3.206  12.451  0.0534 -0.0836 -0.2800
 8115PW      WP29280  10.294   3.278  12.407 -0.1799 -0.2630 -0.0021
 8115PW      WM29281  10.405   3.195  12.312 -0.1952  0.1124 -0.2988
 8116PW       W29282   6.925   1.377   2.172  0.2754  0.1050  0.2579
 8116PW      WP29283   6.924   1.485   2.083 -0.1166 -0.1623 -0.0813
 8116PW      WM29284   6.865   1.476   2.250  0.5825  0.1962  0.3847
 8117PW       W29285   5.928   1.085   2.429 -0.6395  0.1187  0.1697
 8117PW      WP29286   5.902   1.082   2.292 -0.0356 -0.6070  0.0345
 8117PW      WM29287   5.889   1.105   2.562 -0.3069  0.0380  0.2843
 8118PW       W29288   5.908  10.157  10.911  0.2972  0.1526 -0.1289
 8118PW      WP29289   5.911  10.173  10.772 -0.0987 -0.1827 -0.1845
 8118PW      WM29290   5.967  10.032  10.933 -0.1772 -0.1027 -0.2354
 8119PW       W29291   3.701   1.973   9.688  0.2582  0.4771 -0.0203
 8119PW      WP29292   3.672   2.094   9.624  0.1325  0.4050 -0.1023
 8119PW      WM29293   3.571   1.920   9.689  0.3353  0.2819 -0.0494
 8120PW       W29294   3.686   7.277   3.150  0.1396 -0.0043  0.2834
 8120PW      WP29295   3.715   7.146   3.110  0.1010  0.1686 -0.3570
 8120PW      WM29296   3.743   7.254   3.276  0.1249  0.5685  0.4105
 8121PW       W29297  11.185   4.382   1.702  0.0661  0.1051  0.1525
 8121PW      WP29298  11.064   4.327   1.659 -0.0329  0.4793 -0.0756
 8121PW      WM29299  11.283   4.323   1.782  0.2790  0.4029  0.1208
 8122PW       W29300   6.158   3.167  12.306 -0.4793  0.2158  0.0801
 8122PW      WP29301   6.158   3.028  12.285 -0.0504  0.1715  0.3212
 8122PW      WM29302   6.161   3.213  12.438 -0.0169  0.0935  0.1182
 8123PW       W29303   6.487   0.402   9.505 -0.1666  0.2539  0.2006
 8123PW      WP29304   6.539   0.524   9.459 -0.2798  0.1149 -0.3324
 8123PW      WM29305   6.447   0.321   9.398  0.5147 -0.4653  0.4414
 8124PW       W29306   9.993   9.927  13.219 -0.4788 -0.0594 -0.1555
 8124PW      WP29307   9.952   9.844  13.324 -0.0294  0.0085  0.0872
 8124PW      WM29308   9.940  10.056  13.231  0.1124  0.1572  0.4342
 8125PW       W29309   1.470   1.146  10.102 -0.0902  0.0623  0.0994
 8125PW      WP29310   1.526   1.025  10.058  0.0837  0.2690 -0.2639
 8125PW      WM29311   1.388   1.121  10.213  0.2075 -0.4396  0.2242
 8126PW       W29312   6.341   4.879   0.967 -0.0515 -0.2896 -0.1541
 8126PW      WP29313   6.398   4.926   0.848  0.2986  0.7075  0.3415
 8126PW      WM29314   6.210   4.930   0.972  0.1838  0.3449  0.1496
 8127PW       W29315   0.348  11.381  11.362 -0.0034 -0.0977 -0.3702
 8127PW      WP29316   0.315  11.458  11.475  0.3493 -0.0920 -0.2657
 8127PW      WM29317   0.481  11.337  11.363  0.1116  0.2226  0.0215
 8128PW       W29318   1.252   7.358  12.946 -0.3105 -0.3429  0.0076
 8128PW      WP29319   1.358   7.354  13.038 -0.3500 -0.0727  0.0697
 8128PW      WM29320   1.313   7.464  12.879 -1.1013  0.1570  0.0138
 8129PW       W29321   5.581   5.147  10.345  0.1746 -0.2509  0.0652
 8129PW      WP29322   5.517   5.023  10.351 -0.1331 -0.0932  0.2348
 8129PW      WM29323   5.658   5.258  10.309  0.0768 -0.0096  0.5577
 8130PW       W29324   6.027   8.670  11.629  0.4479  0.3336  0.0981
 8130PW      WP29325   6.066   8.804  11.622 -0.0666  0.4998  0.1931
 8130PW      WM29326   6.024   8.673  11.769  0.2257  0.4661  0.0920
 8131PW       W29327   0.810   6.584   4.404  0.1289  0.0767  0.2301
 8131PW      WP29328   0.716   6.483   4.377 -0.0229  0.2641  0.0425
 8131PW      WM29329   0.818   6.523   4.279 -0.6372 -0.0714  0.2273
 8132PW       W29330   0.057   1.073   9.759  0.4041 -0.0713 -0.2982
 8132PW      WP29331   0.003   0.946   9.780 -0.3750  0.2634 -0.0902
 8132PW      WM29332  -0.003   1.187   9.814  0.4711 -0.1851  0.0171
 8133PW       W29333   2.891   0.536  11.762 -0.2182 -0.1154  0.1083
 8133PW      WP29334   2.993   0.450  11.720 -0.3947 -0.4632  0.3637
 8133PW      WM29335   2.917   0.631  11.663  0.3857 -0.1497  0.2167
 8134PW       W29336   6.074   9.183   4.175  0.2867  0.1145  0.0274
 8134PW      WP29337   6.016   9.310   4.185  0.1969  0.0561  0.2948
 8134PW      WM29338   6.197   9.194   4.243 -0.0269 -0.2427  0.7068
 8135PW       W29339   4.672  10.676  10.791  0.1324  0.0144  0.0637
 8135PW      WP29340   4.796  10.665  10.726  0.1019  0.5752 -0.1176
 8135PW      WM29341   4.708  10.541  10.799 -0.1700 -0.0576  0.3153
 8136PW       W29342   4.448   4.895   1.909  0.6933 -0.1443 -0.0981
 8136PW      WP29343   4.374   4.902   1.790  0.6696 -0.2624 -0.0906
 8136PW      WM29344   4.391   4.952   2.024 -0.4514 -0.4125 -0.4680
 8137PW       W29345   2.376   3.923  11.581 -0.0354 -0.1348 -0.2263
 8137PW      WP29346   2.454   3.837  11.502  0.8068  0.1580  0.2230
 8137PW      WM29347   2.286   4.026  11.612 -0.1750 -0.3597  0.1570
 8138PW       W29348   9.594   8.332  12.105 -0.0574 -0.3951  0.2569
 8138PW      WP29349   9.670   8.234  12.168  0.1885 -0.2240  0.2327
 8138PW      WM29350   9.483   8.373  12.180  0.4069 -0.3335  0.9468
 8139PW       W29351   2.049   1.708  11.911 -0.6419  0.1063 -0.2305
 8139PW      WP29352   2.147   1.769  11.832  0.0283 -0.0790  0.3996
 8139PW      WM29353   2.124   1.611  11.845  0.1874  0.2790  0.3789
 8140PW       W29354  11.461   6.009   3.083 -0.0778  0.0814 -0.0044
 8140PW      WP29355  11.356   6.075   3.019  0.0767  0.0384 -0.3152
 8140PW      WM29356  11.596   6.039   3.057 -0.0337  0.0185  0.1508
 8141PW       W29357  10.648  11.563  11.240  0.5776  0.3353  0.1507
 8141PW      WP29358  10.649  11.455  11.151  0.1383 -0.5389  1.0954
 8141PW      WM29359  10.620  11.630  11.360  0.4998  0.3284  0.1366
 8142PW       W29360   4.216  11.483   1.580 -0.1417 -0.0796 -0.0314
 8142PW      WP29361   4.350  11.502   1.615 -0.2755  0.3091  0.2974
 8142PW      WM29362   4.263  11.449   1.707  0.1599 -0.0396 -0.1277
 8143PW       W29363   9.469   2.542   3.320 -0.2215 -0.1459  0.2319
 8143PW      WP29364   9.486   2.601   3.445 -0.2623  0.2274  0.0670
 8143PW      WM29365   9.526   2.416   3.341  0.0219 -0.0876 -0.0468
 8144PW       W29366  10.221   8.675  10.570  0.5596  0.3683 -0.0760
 8144PW      WP29367  10.270   8.745  10.681 -0.0196  0.0648  0.4031
 8144PW      WM29368  10.103   8.738  10.527  0.3148  0.1025  0.1761
 8145PW       W29369  10.536   3.441   3.110  0.0080  0.1526  0.2238
 8145PW      WP29370  10.626   3.420   3.005 -0.1599 -0.3486  0.1702
 8145PW      WM29371  10.504   3.577   3.120  0.0497  0.1777  0.0393
 8146PW       W29372  10.954   4.868   3.601  0.0575  0.2818  0.0925
 8146PW      WP29373  10.938   4.731   3.628  0.4588  0.2248  0.0623
 8146PW      WM29374  11.051   4.777   3.558 -0.1243  0.1139  0.0231
 8147PW       W29375  12.102   8.438   0.769 -0.0270  0.1790 -0.1972
 8147PW      WP29376  12.001   8.363   0.831  0.2277  0.0245  0.0420
 8147PW      WM29377  12.192   8.525   0.707  0.4481 -0.0722  0.1074
 8148PW       W29378   9.409  10.735   0.500  0.2715 -0.2026 -0.0616
 8148PW      WP29379   9.513  10.777   0.584  0.0497  0.1601  0.0403
 8148PW      WM29380   9.275  10.699   0.516  0.3058 -0.4169 -0.2236
 8149PW       W29381   6.048   4.512   2.333 -0.2645 -0.7529 -0.0948
 8149PW      WP29382   6.074   4.603   2.436 -0.0343  0.1110 -0.8535
 8149PW      WM29383   6.055   4.549   2.198  0.3741 -0.1324  0.0820
 8150PW       W29384  11.358  10.710   1.896 -0.0140  0.2174 -0.1165
 8150PW      WP29385  11.362  10.731   1.757  0.0339 -0.5950 -0.2658
 8150PW      WM29386  11.467  10.707   1.984 -0.1956  0.1793  0.1114
 8151PW       W29387   0.234   3.237   1.321 -0.3242  0.0810 -0.4691
 8151PW      WP29388   0.108   3.210   1.265 -0.3939 -0.3082 -0.1433
 8151PW      WM29389   0.247   3.376   1.315 -0.4350  0.0901 -0.5104
 8152PW       W29390   9.721   7.823   2.335  0.1061  0.3762  0.3526
 8152PW      WP29391   9.617   7.732   2.356  0.6190 -0.3098  0.1228
 8152PW      WM29392   9.756   7.953   2.295  0.0114  0.3281  0.1018
 8153PW       W29393   6.775   1.809  11.275  0.0551  0.0637  0.0186
 8153PW      WP29394   6.721   1.681  11.283 -0.0402  0.1246  0.4906
 8153PW      WM29395   6.902   1.815  11.335  0.1149  0.1950 -0.1157
 8154PW       W29396   8.796  11.609   2.694  0.3134 -0.0443  0.1636
 8154PW      WP29397   8.874  11.680   2.786  0.5282  0.2767 -0.2440
 8154PW      WM29398   8.764  11.479   2.735 -0.1436  0.0122  0.0094
 8155PW       W29399   1.080  10.563   2.916 -0.3393 -0.4415 -0.0791
 8155PW      WP29400   0.964  10.630   2.956 -0.2076 -0.2933  0.0626
 8155PW      WM29401   1.100  10.691   2.968  0.0493 -0.7253  0.5333
 8156PW       W29402   4.336   7.084   3.149  0.1008 -0.0925 -0.2286
 8156PW      WP29403   4.290   6.954   3.168 -0.4740  0.1564  0.2572
 8156PW      WM29404   4.444   7.106   3.234 -0.0117  0.3114 -0.1788
 8157PW       W29405   7.201   2.110   0.611 -0.1130 -0.2524  0.0596
 8157PW      WP29406   7.324   2.078   0.552 -0.0175  0.3681 -0.1115
 8157PW      WM29407   7.233   2.243   0.582 -0.0957 -0.1462  0.5228
 8158PW       W29408   9.945   7.375   0.827 -0.2352 -0.0304  0.0926
 8158PW      WP29409   9.911   7.291   0.933  0.5223  0.0637  0.4442
 8158PW      WM29410   9.851   7.479   0.829 -0.2856 -0.0753  0.4263
 8159PW       W29411   0.138   8.111  13.161 -0.0722  0.1115 -0.3287
 8159PW      WP29412   0.077   8.148  13.281  0.0803  0.7172 -0.4197
 8159PW      WM29413   0.134   8.248  13.130  0.1481  0.1874 -0.0397
 8160PW       W29414   3.295  10.250   1.561  0.2737 -0.0341 -0.1788
 8160PW      WP29415   3.323  10.360   1.643 -0.4505  0.2939 -0.3365
 8160PW      WM29416   3.229  10.177   1.461  0.3020 -0.4662  0.1074
 8161PW       W29417   7.200   1.797  12.040 -0.2774 -0.1569 -0.0948
 8161PW      WP29418   7.187   1.701  12.141  0.2380 -0.0879  0.0525
 8161PW      WM29419   7.166   1.922  11.987  0.1565  0.2669  0.5512
 8162PW       W29420   6.901   2.870   9.347 -0.1119 -0.3094 -0.1329
 8162PW      WP29421   7.024   2.875   9.415 -0.2552  0.0199  0.1188
 8162PW      WM29422   6.801   2.815   9.428 -0.2252  0.1299  0.0428
 8163PW       W29423   8.840   0.455  11.333 -0.2175  0.3961  0.0226
 8163PW      WP29424   8.806   0.353  11.244  0.1908  0.0845  0.2067
 8163PW      WM29425   8.800   0.425  11.464  0.2405 -0.5131 -0.0081
 8164PW       W29426   8.528   7.721  12.453  0.0274 -0.0478 -0.2321
 8164PW      WP29427   8.584   7.839  12.402  0.0897 -0.0488 -0.1669
 8164PW      WM29428   8.485   7.672  12.330 -0.5077  0.4149 -0.2503
 8165PW       W29429   9.849   8.926  10.363 -0.0582  0.1838  0.1849
 8165PW      WP29430   9.861   9.065  10.370 -0.2425  0.2169 -0.0808
 8165PW      WM29431   9.725   8.881  10.315  0.1967  0.0223 -0.3670
 8166PW       W29432   9.733   2.720  13.155 -0.2993 -0.3577 -0.2822
 8166PW      WP29433   9.647   2.821  13.110 -0.1878 -0.1408 -0.0227
 8166PW      WM29434   9.684   2.705  13.285  0.3011  0.6380  0.1166
 8167PW       W29435  11.864   2.968   9.255 -0.6517 -0.0859  0.0872
 8167PW      WP29436  11.932   2.846   9.263 -0.1793  0.1350 -0.2930
 8167PW      WM29437  11.973   2.999   9.173 -0.4261 -0.4184  0.2510
 8168PW       W29438  11.498   8.265   5.112  0.4080 -0.1922  0.3611
 8168PW      WP29439  11.580   8.241   5.001 -0.2508  0.0239 -0.2174
 8168PW      WM29440  11.358   8.272   5.125  0.4037 -0.0413  0.2489
 8169PW       W29441  10.661  10.759  10.354 -0.1251  0.0627 -0.0777
 8169PW      WP29442  10.554  10.669  10.343 -0.3649  0.3399 -0.0572
 8169PW      WM29443  10.613  10.647  10.422 -0.4026  0.0409 -0.3015
 8170PW       W29444   2.524  12.062   0.362 -0.3127 -0.2038  0.1170
 8170PW      WP29445   2.492  12.156   0.263  0.4132  0.1204  0.1629
 8170PW      WM29446   2.463  11.939   0.390 -0.3565 -0.4516 -0.8709
 8171PW       W29447   7.358   1.557  12.409  0.2019 -0.1506 -0.0775
 8171PW      WP29448   7.313   1.424  12.402  0.4084 -0.2186 -0.1824
 8171PW      WM29449   7.303   1.585  12.284 -0.0259 -0.1183  0.0278
 8172PW       W29450   0.419   7.560  11.599 -0.0947 -0.1171  0.3886
 8172PW      WP29451   0.445   7.693  11.633  0.2753 -0.0528 -0.0981
 8172PW      WM29452   0.292   7.568  11.541  0.0403  0.1275  0.1103
 8173PW       W29453   6.018  10.485   3.108  0.1113  0.2499  0.2201
 8173PW      WP29454   6.152  10.474   3.148  0.0750 -0.1789  0.2479
 8173PW      WM29455   5.967  10.465   3.238  0.2195 -0.0427  0.2215
 8174PW       W29456   1.038   7.129  11.132  0.0682 -0.0205 -0.2092
 8174PW      WP29457   0.900   7.146  11.114  0.0007 -0.0791  0.2010
 8174PW      WM29458   1.088   7.070  11.016  0.1906 -0.0420 -0.1469
 8175PW       W29459   8.961   0.626   1.520 -0.0563 -0.0351 -0.6048
 8175PW      WP29460   8.953   0.488   1.502  0.3548 -0.1598 -0.0123
 8175PW      WM29461   9.090   0.580   1.552 -0.0728 -0.1384 -0.6854
 8176PW       W29462   6.711   9.466   3.647  0.0200 -0.0106  0.5968
 8176PW      WP29463   6.835   9.402   3.633 -0.1425 -0.2932  0.3828
 8176PW      WM29464   6.627   9.354   3.656  0.3898 -0.3670 -0.0035
 8177PW       W29465   3.751  11.984  11.813  0.1185  0.0690 -0.3084
 8177PW      WP29466   3.889  11.992  11.793  0.2150 -0.4171  0.0783
 8177PW      WM29467   3.754  12.019  11.948  0.7763 -0.1376 -0.2531
 8178PW       W29468   0.814   4.207   4.036 -0.1662 -0.1024  0.1104
 8178PW      WP29469   0.836   4.315   3.949 -0.0215 -0.1424  0.0955
 8178PW      WM29470   0.724   4.277   4.117 -0.1726  0.4960 -0.3783
 8179PW       W29471   3.056   3.787   2.363  0.2918 -0.1204 -0.1516
 8179PW      WP29472   3.130   3.681   2.307  0.0950 -0.3974  0.0973
 8179PW      WM29473   3.093   3.913   2.410 -0.3055  0.0562 -0.1250
 8180PW       W29474   3.059   8.106  11.919  0.0013  0.0846  0.3391
 8180PW      WP29475   3.151   8.012  11.871 -0.4754 -0.0147 -0.4504
 8180PW      WM29476   2.950   8.131  12.003 -0.1575  0.0678  0.1395
 8181PW       W29477   0.426   5.022  11.748 -0.1535  0.1706 -0.0903
 8181PW      WP29478   0.287   5.012  11.729 -0.2356  0.1737  0.4403
 8181PW      WM29479   0.489   4.909  11.801 -0.9757 -0.3417 -0.1032
 8182PW       W29480   3.418   9.045   5.725 -0.7437 -0.3227 -0.0807
 8182PW      WP29481   3.381   8.910   5.718 -0.8058 -0.2991 -0.2486
 8182PW      WM29482   3.460   9.130   5.622 -0.2547 -0.5874 -0.1176
 8183PW       W29483   1.333   5.175  10.463 -0.3917  0.2426 -0.4905
 8183PW      WP29484   1.362   5.308  10.433  0.3202  0.1191 -0.4389
 8183PW      WM29485   1.217   5.175  10.541 -0.1248 -0.2691 -0.0522
 8184PW       W29486   5.527   2.374   9.737  0.3368 -0.2235  0.0861
 8184PW      WP29487   5.472   2.318   9.621  0.1308 -0.0865  0.1151
 8184PW      WM29488   5.518   2.329   9.869 -0.2609 -0.0889  0.1050
 8185PW       W29489   3.412   9.702   9.251  0.0597 -0.0864 -0.0887
 8185PW      WP29490   3.361   9.571   9.240  0.1831 -0.1247 -0.2115
 8185PW      WM29491   3.372   9.745   9.378 -0.1501  0.1144 -0.2196
 8186PW       W29492   0.414   7.075   3.905  0.1830 -0.3281 -0.0612
 8186PW      WP29493   0.300   7.040   3.833 -0.1227  0.4616 -0.0028
 8186PW      WM29494   0.490   7.052   4.021 -0.0110 -0.5549  0.0257
 8187PW       W29495   5.422   9.863   1.397  0.2816  0.2451  0.2540
 8187PW      WP29496   5.530   9.920   1.329  0.2051  0.1119  0.0175
 8187PW      WM29497   5.356   9.955   1.480 -0.4814 -0.1976  0.1807
 8188PW       W29498  11.315   9.921  13.295 -0.2491  0.0929 -0.2666
 8188PW      WP29499  11.180   9.887  13.276 -0.2904  0.1995 -0.1692
 8188PW      WM29500  11.367   9.846  13.401  0.2484  0.5213 -0.1914
 8189PW       W29501  11.508   1.932  11.035  0.1235 -0.1787  0.0091
 8189PW      WP29502  11.435   1.886  10.925  0.1349 -0.1143 -0.0253
 8189PW      WM29503  11.596   1.830  10.995  0.2329 -0.2101  0.3180
 8190PW       W29504   9.934   7.800   4.646  0.2798  0.0141  0.1316
 8190PW      WP29505   9.818   7.871   4.681  0.0821 -0.1384 -0.1938
 8190PW      WM29506   9.916   7.663   4.669  0.3413  0.0248  0.2469
 8191PW       W29507  10.416   0.321  12.903 -0.0918 -0.3078  0.4597
 8191PW      WP29508  10.556   0.324  12.912  0.0172  0.0542 -0.5890
 8191PW      WM29509  10.283   0.280  12.916 -0.2366 -0.0153  0.0066
 8192PW       W29510   4.596   5.579  11.148 -0.1316  0.2358  0.1375
 8192PW      WP29511   4.497   5.548  11.054  0.3446 -0.0277 -0.3054
 8192PW      WM29512   4.714   5.642  11.104  0.1143 -0.3096 -0.0307
 8193PW       W29513  11.243   6.300  12.273 -0.3632 -0.0879  0.2334
 8193PW      WP29514  11.138   6.369  12.334 -0.1575  0.1093  0.3757
 8193PW      WM29515  11.278   6.333  12.142 -0.5986  0.3901  0.2818
 8194PW       W29516  10.383  11.478   8.867 -0.0392  0.7046 -0.3976
 8194PW      WP29517  10.351  11.465   8.731 -0.1839  0.0147 -0.3131
 8194PW      WM29518  10.520  11.451   8.869 -0.0270  0.7688 -0.0171
 8195PW       W29519   3.139   4.070   0.613  0.3629  0.0877 -0.1123
 8195PW      WP29520   3.043   4.039   0.516  0.1893 -0.2032  0.1452
 8195PW      WM29521   3.116   3.943   0.666 -0.3785  0.3417  0.2334
 8196PW       W29522   5.241  11.886   0.740  0.1559  0.1465 -0.2011
 8196PW      WP29523   5.115  11.910   0.685 -0.2920 -0.7312  0.3220
 8196PW      WM29524   5.322  11.841   0.635 -0.2936 -0.2629 -0.3908
 8197PW       W29525   7.819   7.488   9.052 -0.2248 -0.0729 -0.8730
 8197PW      WP29526   7.864   7.492   8.919 -0.1062 -0.1107 -0.8350
 8197PW      WM29527   7.859   7.575   9.155 -0.0212 -0.6336 -0.4488
 8198PW       W29528  10.596   2.396   1.732 -0.0617 -0.1779  0.0888
 8198PW      WP29529  10.709   2.340   1.792  0.0369  0.6746  0.8001
 8198PW      WM29530  10.623   2.441   1.603 -0.1800 -0.3456  0.0028
 8199PW       W29531  10.241  11.816   1.667 -0.3797 -0.0310 -0.1817
 8199PW      WP29532  10.311  11.935   1.693 -0.3933  0.0170 -0.3559
 8199PW      WM29533  10.194  11.753   1.783  0.4786  0.3260  0.4207
 8200PW       W29534   0.694   7.480  11.204 -0.0473  0.0820  0.3264
 8200PW      WP29535   0.715   7.611  11.160  0.0057  0.0059  0.1170
 8200PW      WM29536   0.709   7.396  11.316 -0.2411  0.2291  0.4644
 8201PW       W29537   7.115   7.218  10.003  0.3106 -0.4353 -0.3369
 8201PW      WP29538   6.994   7.275   9.965  0.2807 -0.1885  0.0926
 8201PW      WM29539   7.159   7.271   9.882  0.2227  0.1263 -0.1377
 8202PW       W29540   5.604   2.358   0.718  0.2591  0.2681 -0.1148
 8202PW      WP29541   5.479   2.352   0.781  0.2457  0.1240 -0.1535
 8202PW      WM29542   5.678   2.239   0.722 -0.2247 -0.0539 -0.2512
 8203PW       W29543   8.328   2.036   0.115  0.3416 -0.1614 -0.1099
 8203PW      WP29544   8.282   1.981  -0.006 -0.6322  0.2858  0.0092
 8203PW      WM29545   8.406   1.983   0.218  0.1808 -0.1420  0.0239
 8204PW       W29546   3.073   1.537   1.173  0.3216 -0.3138 -0.2815
 8204PW      WP29547   3.056   1.633   1.074 -0.1698 -0.2089 -0.1102
 8204PW      WM29548   3.011   1.613   1.273  0.0419 -0.1476 -0.5760
 8205PW       W29549   2.764   8.659  12.375 -0.1464  0.0681  0.0440
 8205PW      WP29550   2.780   8.745  12.484  0.1410 -0.2517  0.2639
 8205PW      WM29551   2.862   8.744  12.322 -0.5202  0.4495 -0.0647
 8206PW       W29552   9.788  11.942   1.840 -0.2135  0.1902  0.3939
 8206PW      WP29553   9.759  11.927   1.976  0.2300 -0.0262  0.4709
 8206PW      WM29554   9.740  12.063   1.787 -0.2556  0.0308  0.0539
 8207PW       W29555   6.978   7.938   9.949 -0.1491 -0.4491  0.1307
 8207PW      WP29556   7.027   7.917  10.078  0.0033  0.1710  0.1858
 8207PW      WM29557   7.072   7.836   9.969 -0.1289 -0.3822  0.3957
 8208PW       W29558   5.854   7.758   1.663 -0.1559  0.3190  0.0724
 8208PW      WP29559   5.731   7.722   1.720 -0.0265 -0.2929 -0.0024
 8208PW      WM29560   5.847   7.863   1.756  0.1740  0.0282  0.4413
 8209PW       W29561   1.390   1.063   4.355 -0.0178 -0.2246  0.0988
 8209PW      WP29562   1.505   1.126   4.404  0.1329 -0.2743 -0.1850
 8209PW      WM29563   1.311   0.957   4.403 -0.2880 -0.0411  0.0709
 8210PW       W29564   0.714  10.880  12.229 -0.0697  0.0475  0.7932
 8210PW      WP29565   0.611  10.971  12.200 -0.1605 -0.3250 -0.2535
 8210PW      WM29566   0.728  10.966  12.120 -0.2379  0.0715  0.7890
 8211PW       W29567   8.981   4.244   0.598 -0.2322 -0.2811  0.2640
 8211PW      WP29568   8.931   4.285   0.722  0.3804 -0.4118  0.5724
 8211PW      WM29569   8.841   4.249   0.586 -0.1885  0.2365 -0.1998
 8212PW       W29570   1.556   7.060   0.466 -0.2583 -0.4222 -0.3071
 8212PW      WP29571   1.500   7.121   0.353  0.0470 -0.1905 -0.3409
 8212PW      WM29572   1.645   6.956   0.434  0.1412 -0.0563 -0.4285
 8213PW       W29573   6.530   7.523   1.681  0.1254  0.2692 -0.2438
 8213PW      WP29574   6.486   7.398   1.638  0.0542  0.3729 -0.4824
 8213PW      WM29575   6.570   7.654   1.649  0.1249  0.3355  0.0148
 8214PW       W29576   0.717   2.902  10.903  0.0793  0.3982  0.1101
 8214PW      WP29577   0.756   3.010  10.822  0.0703  0.4062  0.1165
 8214PW      WM29578   0.767   2.795  10.828  0.5010  0.6987 -0.0575
 8215PW       W29579   9.966   7.196  10.807  0.1794  0.0337  0.2079
 8215PW      WP29580  10.076   7.189  10.720  0.2070 -0.3045  0.2631
 8215PW      WM29581   9.913   7.083  10.869  0.1924 -0.1174 -0.0490
 8216PW       W29582   6.794  11.829  11.020 -0.2324 -0.1866 -0.1800
 8216PW      WP29583   6.691  11.917  10.985 -0.0450  0.1883  0.1733
 8216PW      WM29584   6.838  11.704  10.973 -0.2092 -0.1233 -0.3283
 8217PW       W29585   4.011   3.490  10.298 -0.4051 -0.4486 -0.4021
 8217PW      WP29586   4.098   3.400  10.359 -0.3596 -0.1362  0.0149
 8217PW      WM29587   3.906   3.494  10.391 -0.2858 -0.2560 -0.2717
 8218PW       W29588   8.518   9.748  11.770  0.5274 -0.3529 -0.3713
 8218PW      WP29589   8.627   9.820  11.717  0.4019 -0.1386 -0.3425
 8218PW      WM29590   8.419   9.658  11.729  0.1769 -0.3474  0.3844
 8219PW       W29591   0.504   3.270   8.953 -0.0528 -0.2873  0.0325
 8219PW      WP29592   0.410   3.369   8.981  0.1057  0.0536 -0.5590
 8219PW      WM29593   0.550   3.340   8.840 -0.1421  0.1777  0.2738
 8220PW       W29594   8.776   5.369  11.572  0.4675 -0.2743  0.5553
 8220PW      WP29595   8.839   5.248  11.539 -0.2735 -0.4894 -0.2720
 8220PW      WM29596   8.797   5.498  11.523 -0.0954 -0.2800  0.2641
 8221PW       W29597   7.395   2.630  12.840 -0.0931 -0.3790 -0.0122
 8221PW      WP29598   7.363   2.690  12.963 -0.2364 -0.0772 -0.1910
 8221PW      WM29599   7.446   2.669  12.716 -0.3516 -0.4384 -0.1428
 8222PW       W29600   5.944   6.860  11.039  0.2990  0.0495  0.0155
 8222PW      WP29601   6.079   6.893  11.024  0.2032  0.3609 -0.2339
 8222PW      WM29602   5.938   6.956  11.141  0.0583 -0.0466  0.0961
 8223PW       W29603   0.546   7.803   3.405  0.0028 -0.1280 -0.0733
 8223PW      WP29604   0.504   7.914   3.480 -0.6902 -0.0191 -0.5780
 8223PW      WM29605   0.456   7.788   3.299  0.1289  0.0485 -0.2091
 8224PW       W29606   9.705   1.142  13.014  0.3670  0.0291  0.0049
 8224PW      WP29607   9.639   1.018  13.007  0.0065  0.2248 -0.2069
 8224PW      WM29608   9.836   1.183  12.984  0.2105  0.2918 -0.3607
 8225PW       W29609   0.908   5.675  12.741  0.0249 -0.3270 -0.0739
 8225PW      WP29610   0.917   5.578  12.842 -0.2811 -0.0565  0.2296
 8225PW      WM29611   1.027   5.603  12.749  0.2835  0.1131  0.3694
 8226PW       W29612   5.699   6.250   3.983 -0.1503 -0.3571 -0.1591
 8226PW      WP29613   5.678   6.263   4.121 -0.2087  0.0283 -0.1998
 8226PW      WM29614   5.801   6.297   3.899 -0.1839 -0.1965 -0.1122
 8227PW       W29615   2.606   4.711  12.554  0.4098  0.0481  0.0441
 8227PW      WP29616   2.629   4.831  12.622 -0.1369  0.1498  0.0730
 8227PW      WM29617   2.625   4.806  12.453 -0.4233 -0.0775 -0.2634
 8228PW       W29618  11.990   7.780   3.065  0.2984 -0.1241  0.0156
 8228PW      WP29619  11.893   7.874   3.027 -0.1901 -0.4106  0.4940
 8228PW      WM29620  11.981   7.686   2.961  0.2270 -0.2363  0.1228
 8229PW       W29621   3.868  12.095   9.465 -0.0262 -0.5511 -0.1561
 8229PW      WP29622   3.892  12.179   9.356  0.4312  0.0727  0.3872
 8229PW      WM29623   3.762  12.108   9.557  0.1573 -0.1472  0.0112
 8230PW       W29624  11.317   6.020  11.706 -0.1085  0.0233 -0.0126
 8230PW      WP29625  11.355   5.937  11.812 -0.0323 -0.1325 -0.1587
 8230PW      WM29626  11.267   5.932  11.609  0.6142 -0.2365 -0.1789
 8231PW       W29627   8.191   3.027  12.404 -0.3487  0.2075 -0.1531
 8231PW      WP29628   8.262   3.045  12.285  0.2205 -0.0261  0.1317
 8231PW      WM29629   8.170   3.155  12.456 -0.4293  0.0785  0.1405
 8232PW       W29630   3.082   7.570   5.004  0.1467  0.0004 -0.1647
 8232PW      WP29631   3.005   7.671   5.063  0.2494 -0.1910  0.3155
 8232PW      WM29632   3.098   7.444   4.946 -0.2067 -0.1648  0.0823
 8233PW       W29633   2.560   9.684  11.155  0.3179 -0.4980 -0.4427
 8233PW      WP29634   2.661   9.754  11.088 -0.1179  0.1470 -0.4699
 8233PW      WM29635   2.632   9.746  11.258 -0.1149 -0.6272 -0.0447
 8234PW       W29636   3.043   8.332  10.956 -0.0671  0.4653 -0.3455
 8234PW      WP29637   3.133   8.439  10.957 -0.0437  0.4493  0.0521
 8234PW      WM29638   3.171   8.304  10.907  0.3290  0.4356  0.5952
 8235PW       W29639   8.929   1.044   1.865  0.1432  0.1405  0.0123
 8235PW      WP29640   8.864   1.161   1.823 -0.1959 -0.0532 -0.0265
 8235PW      WM29641   8.874   0.978   1.976 -0.1872  0.3654 -0.0083
 8236PW       W29642   0.178  10.543   5.227  0.0300  0.0270 -0.3487
 8236PW      WP29643   0.137  10.419   5.177  0.6393 -0.1976 -0.3266
 8236PW      WM29644   0.040  10.565   5.245  0.0672  0.1533 -0.2052
 8237PW       W29645   2.556   8.865   9.675 -0.0975 -0.2194  0.0235
 8237PW      WP29646   2.614   8.757   9.742 -1.0316 -0.4528  0.5460
 8237PW      WM29647   2.487   8.757   9.731 -0.5588  0.1977  0.3103
 8238PW       W29648   3.643  10.749   1.542  0.0435  0.1331  0.4030
 8238PW      WP29649   3.571  10.639   1.494  0.2370  0.1550  0.0436
 8238PW      WM29650   3.534  10.796   1.616 -0.3254  0.1792 -0.1401
 8239PW       W29651   6.238   9.741   9.210 -0.0410  0.1176 -0.0052
 8239PW      WP29652   6.206   9.693   9.338 -0.5760 -0.1328 -0.2188
 8239PW      WM29653   6.164   9.839   9.278 -0.1377 -0.0548  0.1437
 8240PW       W29654   9.350   5.635  12.426  0.2836  0.1658 -0.2584
 8240PW      WP29655   9.342   5.495  12.428  0.2376  0.1612  0.4355
 8240PW      WM29656   9.454   5.656  12.517  0.2034  0.2518 -0.1865
 8241PW       W29657  11.274   5.191   0.733  0.1934  0.3079 -0.0720
 8241PW      WP29658  11.285   5.078   0.651  0.2696 -0.0514  0.4112
 8241PW      WM29659  11.188   5.242   0.831  0.2134  0.2736 -0.0369
 8242PW       W29660   1.349   2.759  11.098  0.0661 -0.1746 -0.1498
 8242PW      WP29661   1.280   2.814  10.989 -0.2105  0.3558  0.2655
 8242PW      WM29662   1.379   2.892  11.132  0.1795 -0.1253 -0.4315
 8243PW       W29663  11.579   2.044  12.621 -0.1912  0.1706  0.0186
 8243PW      WP29664  11.584   1.953  12.727  0.0903  0.0311 -0.1104
 8243PW      WM29665  11.446   2.004  12.599  0.0157 -0.4138 -0.2695
 8244PW       W29666   4.483   9.685   1.042 -0.1786 -0.1800 -0.1608
 8244PW      WP29667   4.490   9.576   1.130  0.5498  0.0075  0.0478
 8244PW      WM29668   4.503   9.691   0.903 -0.3263  0.2098 -0.1706
 8245PW       W29669   8.261   1.272   0.738 -0.2407  0.1840  0.1877
 8245PW      WP29670   8.383   1.337   0.755  0.0183 -0.2445  0.0563
 8245PW      WM29671   8.203   1.146   0.757  0.4671 -0.2032 -0.0319
 8246PW       W29672  12.044   0.953   4.192 -0.3163  0.2052  0.0597
 8246PW      WP29673  12.081   0.970   4.326  0.2043 -0.4516  0.0283
 8246PW      WM29674  11.912   0.929   4.232 -0.0188 -0.8128  0.6176
 8247PW       W29675  10.798   8.950  12.459 -0.0408  0.4196 -0.1291
 8247PW      WP29676  10.736   8.909  12.340  0.6335 -0.4398 -0.2353
 8247PW      WM29677  10.860   8.956  12.585  0.1368  0.5655 -0.2224
 8248PW       W29678   5.039   2.703   0.990  0.2020  0.0452  0.0813
 8248PW      WP29679   5.083   2.585   0.930 -0.0249 -0.1673  0.3198
 8248PW      WM29680   4.909   2.673   0.949  0.1467  0.5640 -0.1660
 8249PW       W29681   7.199   2.920   5.222  0.1495 -0.0747 -0.1929
 8249PW      WP29682   7.128   2.828   5.300 -0.3667  0.2797 -0.2236
 8249PW      WM29683   7.186   2.978   5.095 -0.3920  0.4464  0.0778
 8250PW       W29684   0.369   8.474   0.124 -0.1792 -0.1567  0.3336
 8250PW      WP29685   0.337   8.517   0.254  0.1957 -0.6194  0.5909
 8250PW      WM29686   0.314   8.578   0.047  0.1373 -0.2359 -0.0154
 8251PW       W29687  10.415   0.914   0.946  0.0891 -0.0298  0.3710
 8251PW      WP29688  10.524   0.992   0.908 -0.1701 -0.0305 -0.4749
 8251PW      WM29689  10.365   0.817   0.858  0.1687  0.1893  0.0744
 8252PW       W29690   0.937   0.798   9.493 -0.1573 -0.0127 -0.0921
 8252PW      WP29691   0.819   0.870   9.512  0.0248  0.3830 -0.3939
 8252PW      WM29692   0.960   0.710   9.599 -0.3847  0.3263  0.2539
 8253PW       W29693   9.431  12.108   1.065 -0.4748  0.3347 -0.2309
 8253PW      WP29694   9.399  11.971   1.065 -0.4723  0.3329 -0.3648
 8253PW      WM29695   9.446  12.153   0.933  0.4623  0.2256 -0.1957
 8254PW       W29696   0.927   3.992  13.333 -0.3961 -0.3815  0.0086
 8254PW      WP29697   1.031   3.986  13.240 -0.2867  0.3765  0.0571
 8254PW      WM29698   1.003   3.896  13.402  0.4414 -0.0825 -0.4311
 8255PW       W29699   9.088   0.472  13.164  0.3631  0.0676  0.1210
 8255PW      WP29700   9.174   0.445  13.057 -0.2920 -0.2203 -0.3700
 8255PW      WM29701   9.051   0.386  13.059 -0.6219  0.2316  0.2872
 8256PW       W29702  10.250   4.876   1.788  0.0063  0.2668 -0.1262
 8256PW      WP29703  10.259   5.012   1.821  0.0992  0.1656  0.2935
 8256PW      WM29704  10.312   4.907   1.667  0.1029 -0.0744 -0.1690
 8257PW       W29705   8.345   8.788   2.603 -0.1158 -0.0237 -0.0443
 8257PW      WP29706   8.433   8.723   2.516  0.0930  0.0767  0.0892
 8257PW      WM29707   8.363   8.898   2.687  0.0863 -0.0694 -0.0242
 8258PW       W29708   3.171   2.279   4.997 -0.1022 -0.1980 -0.1986
 8258PW      WP29709   3.057   2.310   4.921  0.0667  0.4418 -0.2214
 8258PW      WM29710   3.254   2.290   4.885 -0.2784 -0.3296 -0.3457
 8259PW       W29711   7.603   9.927  11.059  0.2965  0.1371  0.2549
 8259PW      WP29712   7.467   9.914  11.031  0.3053  0.1618  0.1984
 8259PW      WM29713   7.650  10.017  11.156 -0.3744  0.4052  0.3585
 8260PW       W29714   3.399   7.469  10.167 -0.0841 -0.3609 -0.1057
 8260PW      WP29715   3.350   7.598  10.188  0.1936 -0.1623 -0.6006
 8260PW      WM29716   3.425   7.486  10.303 -0.2834  0.3702 -0.1392
 8261PW       W29717   9.646  11.558  11.091  0.2437  0.1589  0.5116
 8261PW      WP29718   9.722  11.601  10.982 -0.1969  0.6570  0.3800
 8261PW      WM29719   9.510  11.525  11.088  0.2592  0.1166  0.2260
 8262PW       W29720   2.969   9.988  11.229 -0.7611 -0.3065  0.1312
 8262PW      WP29721   2.858  10.028  11.304 -0.8781  0.1238 -0.2457
 8262PW      WM29722   3.038   9.957  11.346 -0.4988 -0.0948  0.0369
 8263PW       W29723   7.047  12.011   3.839 -0.4639  0.3487 -0.0440
 8263PW      WP29724   7.043  12.093   3.725  0.0994 -0.0253 -0.3589
 8263PW      WM29725   7.157  11.978   3.758 -0.3929 -0.7946  0.4230
 8264PW       W29726   0.034   6.042   2.582  0.3437 -0.2169 -0.4022
 8264PW      WP29727   0.146   6.114   2.625 -0.0284  0.2978 -0.2399
 8264PW      WM29728   0.125   5.937   2.598 -0.1147 -0.5423  0.2965
 8265PW       W29729  10.581   2.159  10.931  0.2118 -0.4495 -0.1558
 8265PW      WP29730  10.640   2.282  10.903 -0.1858 -0.2036  0.0397
 8265PW      WM29731  10.484   2.238  10.869  0.3331 -0.2648 -0.1143
 8266PW       W29732   1.223   8.206  13.188  0.3446 -0.3446 -0.4308
 8266PW      WP29733   1.340   8.183  13.261 -0.0588  0.2136  0.4816
 8266PW      WM29734   1.198   8.068  13.199 -0.0680 -0.2349  0.3691
 8267PW       W29735   5.065   4.010   0.645  0.5354  0.2354 -0.1193
 8267PW      WP29736   5.062   4.122   0.561 -0.2565  0.3757  0.0526
 8267PW      WM29737   5.030   4.016   0.781 -0.4922  0.0645 -0.3322
 8268PW       W29738   6.864   2.694  12.135 -0.1133  0.0291  0.5465
 8268PW      WP29739   6.853   2.831  12.105 -0.4211 -0.0872  0.0801
 8268PW      WM29740   6.738   2.634  12.141 -0.1684  0.1347  0.4851
 8269PW       W29741   3.124   3.459  12.367 -0.3254  0.1058 -0.2713
 8269PW      WP29742   3.190   3.553  12.447 -0.1069 -0.1905 -0.0931
 8269PW      WM29743   3.069   3.529  12.475 -0.1553  0.0118 -0.1203
 8270PW       W29744   1.553   2.130  12.790  0.2832 -0.5516 -0.2599
 8270PW      WP29745   1.662   2.197  12.733 -0.2599  0.5605 -0.1183
 8270PW      WM29746   1.494   2.098  12.913  0.2109  0.6734  0.0901
 8271PW       W29747   2.222  11.772   4.497  0.3326  0.0009  0.2240
 8271PW      WP29748   2.094  11.823   4.526 -0.0117 -0.8022  0.2449
 8271PW      WM29749   2.269  11.888   4.434  0.2548 -0.3468 -0.5247
 8272PW       W29750   3.318   4.719   2.711  0.1774 -0.1242  0.0230
 8272PW      WP29751   3.388   4.756   2.595 -0.4207  0.1468 -0.2717
 8272PW      WM29752   3.249   4.806   2.795  0.4193 -0.2411  0.3551
 8273PW       W29753   5.639   3.826  10.212  0.0918 -0.0260 -0.3863
 8273PW      WP29754   5.675   3.838  10.347  0.0723  0.3247 -0.4095
 8273PW      WM29755   5.547   3.926  10.249  0.1035 -0.1544  0.0174
 8274PW       W29756  11.077   5.475   8.657 -0.2960  0.4218  0.3829
 8274PW      WP29757  10.940   5.482   8.681 -0.3475 -0.3299  0.4167
 8274PW      WM29758  11.005   5.402   8.562  0.0381  0.4556  0.0936
 8275PW       W29759   0.213   2.293   2.955  0.2148  0.3545 -0.5797
 8275PW      WP29760   0.085   2.321   2.905 -0.0507  0.4181  0.0782
 8275PW      WM29761   0.349   2.313   2.980  0.1910 -0.1163  0.0536
 8276PW       W29762  12.116   6.374   4.285  0.1714  0.0171  0.3847
 8276PW      WP29763  12.169   6.448   4.179 -0.2005 -0.4968 -0.1922
 8276PW      WM29764  11.981   6.382   4.250  0.2704  0.0777 -0.0097
 8277PW       W29765   6.052   2.595   0.689 -0.0566  0.2471 -0.2886
 8277PW      WP29766   6.187   2.613   0.657  0.1189 -0.5091 -0.0662
 8277PW      WM29767   6.027   2.469   0.634  0.1181 -0.0222  0.2176
 8278PW       W29768   4.774   4.849  12.456 -0.1079 -0.0937  0.0453
 8278PW      WP29769   4.878   4.775  12.513 -0.1098  0.0125  0.1897
 8278PW      WM29770   4.901   4.906  12.452 -0.0519 -0.2328 -0.2958
 8279PW       W29771   0.665   2.453  11.498 -0.0185 -0.1392 -0.4637
 8279PW      WP29772   0.799   2.489  11.512 -0.1349  0.2568 -0.2908
 8279PW      WM29773   0.607   2.519  11.607  0.2303 -0.0755 -0.3656
 8280PW       W29774   1.927   7.005  12.226 -0.0141 -0.0840 -0.1433
 8280PW      WP29775   2.032   6.954  12.149  0.0505 -0.0028 -0.1091
 8280PW      WM29776   2.062   6.974  12.247  0.0497  0.1970 -0.1087
 8281PW       W29777   2.126   9.650  10.875  0.0729 -0.0650 -0.2571
 8281PW      WP29778   2.080   9.778  10.910 -0.3305 -0.1711 -0.3676
 8281PW      WM29779   2.074   9.576  10.982  0.3488  0.2641  0.1199
 8282PW       W29780   5.899   5.822   2.650 -0.2167 -0.1510 -0.2900
 8282PW      WP29781   5.806   5.921   2.618  0.0114  0.1754  0.0154
 8282PW      WM29782   5.929   5.696   2.596  0.2069 -0.1802 -0.0130
 8283PW       W29783  10.817  11.435   0.081 -0.1227  0.2249 -0.2627
 8283PW      WP29784  10.761  11.468  -0.044  0.1595 -0.0658 -0.4738
 8283PW      WM29785  10.751  11.507   0.181 -0.1105  0.0317 -0.1142
 8284PW       W29786   4.780   8.665   0.500 -0.3174 -0.2856  0.0308
 8284PW      WP29787   4.753   8.606   0.623  0.0071  0.0386  0.2681
 8284PW      WM29788   4.762   8.780   0.422 -0.2008 -0.0947  0.2779
 8285PW       W29789   4.760   4.539   0.773 -0.1041 -0.0308 -0.0357
 8285PW      WP29790   4.622   4.527   0.752 -0.0795 -0.1922 -0.1067
 8285PW      WM29791   4.885   4.531   0.836 -0.1430  0.3416  0.0994
 8286PW       W29792   7.005   9.800  10.011  0.1297 -0.0886  0.0450
 8286PW      WP29793   7.124   9.842  10.071  0.4248 -0.2859 -0.3748
 8286PW      WM29794   6.923   9.689  10.032 -0.0938  0.1129  0.2676
 8287PW       W29795   5.278  11.711  10.736  0.1786 -0.0060  0.3584
 8287PW      WP29796   5.355  11.600  10.774  0.3006  0.0217  0.1957
 8287PW      WM29797   5.367  11.683  10.632  0.4461 -0.1135  0.6090
 8288PW       W29798  10.265   1.981   3.484  0.3432 -0.4204 -0.3077
 8288PW      WP29799  10.382   2.012   3.553  0.2085 -0.0695 -0.2270
 8288PW      WM29800  10.151   1.937   3.553  0.3838  0.0807  0.1018
 8289PW       W29801   8.293   3.525   0.868  0.5494  0.3115  0.3602
 8289PW      WP29802   8.323   3.632   0.953 -0.3438  0.1359  0.9813
 8289PW      WM29803   8.316   3.570   0.738  0.2174 -0.0483  0.1635
 8290PW       W29804   9.369   8.105  12.966  0.4867  0.1095  0.0352
 8290PW      WP29805   9.427   8.113  13.093  0.2019  0.2499  0.1600
 8290PW      WM29806   9.390   8.235  12.918  0.5640  0.2067  0.3214
 8291PW       W29807   2.586  11.896   4.245  0.1625  0.0661 -0.2755
 8291PW      WP29808   2.617  11.862   4.377 -0.4156  0.1478 -0.1050
 8291PW      WM29809   2.496  11.790   4.228  0.0867  0.1023 -0.1097
 8292PW       W29810   9.451   9.156   0.275  0.1467 -0.1670 -0.1150
 8292PW      WP29811   9.346   9.150   0.183 -0.1393 -0.3976  0.2119
 8292PW      WM29812   9.491   9.080   0.385 -0.0588  0.3394  0.3353
 8293PW       W29813   5.981   0.487   5.055  0.4979  0.0298 -0.3264
 8293PW      WP29814   5.931   0.520   5.182  0.3445 -0.3269 -0.2909
 8293PW      WM29815   6.106   0.544   5.025  0.5160  0.1183 -0.0954
 8294PW       W29816   1.958   3.205   9.132  0.0582  0.1794 -0.4086
 8294PW      WP29817   1.943   3.333   9.186 -0.1587  0.0031 -0.0274
 8294PW      WM29818   2.027   3.210   9.254 -0.5233  0.4443 -0.0716
 8295PW       W29819   5.632   1.385   2.787  0.0579 -0.3007 -0.5573
 8295PW      WP29820   5.719   1.281   2.753 -0.4463 -0.7611 -0.5003
 8295PW      WM29821   5.658   1.480   2.687  0.1132 -0.2682 -0.5117
 8296PW       W29822   9.631   8.584   1.826 -0.1050  0.1894 -0.2272
 8296PW      WP29823   9.748   8.646   1.781  0.0038  0.1576 -0.0009
 8296PW      WM29824   9.528   8.610   1.918  0.1019  0.1713  0.0168
 8297PW       W29825  10.774   2.967   9.724  0.1464  0.3077  0.4749
 8297PW      WP29826  10.890   2.949   9.799  0.0675 -0.3068  0.4743
 8297PW      WM29827  10.696   2.855   9.755 -0.3890  0.4032 -0.3453
 8298PW       W29828   7.205   3.517  11.873 -0.0304  0.0411  0.2579
 8298PW      WP29829   7.311   3.600  11.833 -0.0735 -0.1282 -0.2432
 8298PW      WM29830   7.135   3.545  11.990 -0.2430 -0.0374  0.1505
 8299PW       W29831   8.202   0.625   1.536 -0.1564  0.2184  0.1609
 8299PW      WP29832   8.240   0.523   1.448 -0.6254  0.1196  0.0608
 8299PW      WM29833   8.161   0.491   1.542 -0.0306  0.1856  0.3719
 8300PW       W29834   7.177   4.451   2.683  0.2385 -0.0701 -0.2898
 8300PW      WP29835   7.100   4.340   2.646  0.3826 -0.2878  0.0466
 8300PW      WM29836   7.167   4.507   2.811  0.0977 -0.5852 -0.0630
 8301PW       W29837   3.224   6.068   2.075  0.0898 -0.2777 -0.1872
 8301PW      WP29838   3.160   6.010   1.964  0.2824 -0.0404 -0.4300
 8301PW      WM29839   3.309   6.165   2.021  0.2188 -0.3348 -0.0911
 8302PW       W29840   4.938   3.319   1.704 -0.4620  0.2367 -0.0983
 8302PW      WP29841   4.924   3.445   1.644  0.0332  0.2905 -0.1202
 8302PW      WM29842   4.899   3.264   1.581  0.0076 -0.4216  0.0234
 8303PW       W29843   7.204   3.964   0.929 -0.0191 -0.0639 -0.1753
 8303PW      WP29844   7.233   3.849   0.854 -0.0407 -0.1679 -0.0259
 8303PW      WM29845   7.202   4.102   0.906  0.2740  0.0846  0.5547
 8304PW       W29846   3.876  10.198   1.047  0.3879 -0.1307  0.4298
 8304PW      WP29847   3.914  10.065   1.071  0.1871 -0.2284  0.2294
 8304PW      WM29848   3.941  10.210   0.924 -0.2552  0.1206  0.0907
 8305PW       W29849   0.001   9.077   9.466 -0.4382  0.0799  0.1614
 8305PW      WP29850   0.117   9.053   9.391  0.3000  0.0150  1.2192
 8305PW      WM29851   0.004   9.090   9.605 -0.0694 -0.3165  0.2012
 8306PW       W29852   6.301   9.515   0.586 -0.3587 -0.6034 -0.4620
 8306PW      WP29853   6.328   9.641   0.531 -0.0700 -0.5154 -0.1411
 8306PW      WM29854   6.324   9.403   0.667  0.5096 -0.2282 -0.1257
 8307PW       W29855  11.265   9.436   4.106  0.5591  0.1997 -0.2128
 8307PW      WP29856  11.329   9.478   4.223 -0.0303  0.1364  0.1504
 8307PW      WM29857  11.250   9.542   4.016 -0.2147  0.4739  0.1966
 8308PW       W29858   2.752   8.359   4.801 -0.0020  0.1543  0.1603
 8308PW      WP29859   2.822   8.381   4.681  0.3528 -0.6935  0.1739
 8308PW      WM29860   2.641   8.310   4.732  0.2078  0.1136 -0.1642
 8309PW       W29861   9.070   1.898   2.117  0.3012 -0.5841  0.1046
 8309PW      WP29862   9.182   1.958   2.175  0.1114 -0.1768  0.0635
 8309PW      WM29863   8.957   1.830   2.166 -0.3992  0.5610  0.2628
 8310PW       W29864   1.996   6.955   0.115 -0.0640 -0.2960  0.1201
 8310PW      WP29865   2.035   7.083   0.072  0.5325 -0.6881 -0.6267
 8310PW      WM29866   2.124   6.992   0.157 -0.1555 -0.0428  0.1905
 8311PW       W29867  11.315   1.545  11.389  0.0797 -0.0550 -0.0393
 8311PW      WP29868  11.445   1.595  11.373  0.2797 -0.5875 -0.1787
 8311PW      WM29869  11.401   1.468  11.468  0.2686  0.4708  0.2960
 8312PW       W29870   2.185   4.446   3.891  0.5849 -0.2776 -0.6943
 8312PW      WP29871   2.197   4.318   3.947  0.3241  0.0459  0.1880
 8312PW      WM29872   2.258   4.545   3.959 -0.2728  0.0552 -0.1803
 8313PW       W29873   7.519   0.085   2.124  0.0668  0.0307 -0.0153
 8313PW      WP29874   7.584  -0.011   2.202 -0.0426 -0.0032  0.0334
 8313PW      WM29875   7.541   0.187   2.030  0.3330 -0.0609 -0.0587
 8314PW       W29876   7.821   4.958   0.205 -0.1471  0.1131  0.3671
 8314PW      WP29877   7.894   4.964   0.325 -0.2478  0.0879  0.4298
 8314PW      WM29878   7.697   4.993   0.152  0.1370  0.1509 -0.3249
 8315PW       W29879   1.522   8.178   9.820  0.0708 -0.3038 -0.1322
 8315PW      WP29880   1.466   8.099   9.718 -0.0362 -0.2595 -0.1084
 8315PW      WM29881   1.645   8.242   9.802  0.0358 -0.1813  0.0483
 8316PW       W29882  12.021   7.631  12.914  0.1650  0.0355  0.2100
 8316PW      WP29883  12.098   7.531  12.855  0.2834  0.3811 -0.2437
 8316PW      WM29884  11.998   7.760  12.865  0.3800  0.1085  0.2946
 8317PW       W29885   6.446   0.932   4.487  0.3407 -0.3012  0.2315
 8317PW      WP29886   6.481   0.999   4.370 -0.2862 -0.0717  0.1542
 8317PW      WM29887   6.363   0.890   4.592  0.4554 -0.0246  0.4377
 8318PW       W29888   3.323   2.398  10.098  0.1246  0.1136  0.1282
 8318PW      WP29889   3.357   2.270  10.144 -0.7266 -0.1570  0.0748
 8318PW      WM29890   3.188   2.420  10.127  0.0890 -0.0249  0.0743
 8319PW       W29891   5.708   9.036  10.010 -0.6301  0.5379 -0.0753
 8319PW      WP29892   5.699   8.924  10.094  0.0382  0.2940 -0.2997
 8319PW      WM29893   5.758   9.136  10.093 -0.0537 -0.0874  0.3822
 8320PW       W29894   2.029   5.764   2.410 -0.0405 -0.4114 -0.5554
 8320PW      WP29895   1.905   5.797   2.467  0.1712 -0.3251 -0.1223
 8320PW      WM29896   2.137   5.686   2.367  0.2254 -0.3669 -0.0131
 8321PW       W29897   4.567   9.878   1.838 -0.0470 -0.1873 -0.1029
 8321PW      WP29898   4.623   9.905   1.963  0.1324 -0.1780 -0.1839
 8321PW      WM29899   4.590   9.787   1.734  0.3971  0.0741 -0.2491
 8322PW       W29900   9.789   8.494  10.771  0.2376 -0.3023  0.2143
 8322PW      WP29901   9.810   8.625  10.815 -0.0156 -0.0813 -0.2778
 8322PW      WM29902   9.862   8.386  10.822  0.1321 -0.2483  0.4877
 8323PW       W29903   0.931   4.526   2.429  0.0861  0.0750  0.0976
 8323PW      WP29904   0.825   4.449   2.479 -0.0316  0.4472  0.4462
 8323PW      WM29905   0.946   4.641   2.507  0.2799  0.0866  0.0460
 8324PW       W29906   7.064   0.860   2.814  0.3710 -0.1112 -0.3116
 8324PW      WP29907   6.995   0.762   2.886  0.2742 -0.0295 -0.2905
 8324PW      WM29908   6.965   0.788   2.747 -0.0084  0.2973 -0.2208
 8325PW       W29909   5.237  10.243   5.349 -1.0437 -0.1325 -0.1736
 8325PW      WP29910   5.235  10.378   5.385 -0.0080 -0.1618  0.1491
 8325PW      WM29911   5.160  10.158   5.429 -0.2976 -0.1298  0.6199
 8326PW       W29912   1.933  10.490   1.859 -0.3819  0.0306 -0.0867
 8326PW      WP29913   2.010  10.543   1.755 -0.1619  0.0869  0.0991
 8326PW      WM29914   2.059  10.437   1.889 -0.2044 -0.0136 -0.8223
 8327PW       W29915  10.892   3.025   4.134 -0.3468 -0.2050  0.2227
 8327PW      WP29916  10.869   3.163   4.135  0.0077 -0.1396  0.0741
 8327PW      WM29917  11.031   3.010   4.126 -0.3561 -0.0875 -0.6821
 8328PW       W29918   8.776   1.137   3.638  0.6480  0.3351 -0.1398
 8328PW      WP29919   8.881   1.092   3.720  0.3034 -0.2589  0.0003
 8328PW      WM29920   8.860   1.248   3.620  0.8708  0.1343 -0.3660
 8329PW       W29921   0.722   1.692   9.409  0.2880 -0.0895 -0.0171
 8329PW      WP29922   0.810   1.619   9.490 -0.1250 -0.2659  0.2876
 8329PW      WM29923   0.826   1.606   9.448  0.0831 -0.4144 -0.1668
 8330PW       W29924   3.734  11.920  12.711  0.2337  0.0879  0.1187
 8330PW      WP29925   3.743  11.897  12.573  0.1148 -0.1767  0.1506
 8330PW      WM29926   3.763  11.807  12.788  0.0660 -0.2446 -0.2851
 8331PW       W29927   7.410   8.412   9.158  0.3196 -0.1813  0.3685
 8331PW      WP29928   7.484   8.299   9.121 -0.0222 -0.4384  0.4447
 8331PW      WM29929   7.282   8.386   9.209  0.1731 -0.6263 -0.1665
 8332PW       W29930   3.678  10.222  11.659  0.2056  0.1112  0.4453
 8332PW      WP29931   3.700  10.148  11.542 -0.0925  0.2732  0.2809
 8332PW      WM29932   3.545  10.262  11.638  0.1540 -0.3164 -0.1775
 8333PW       W29933   3.702   5.312   2.296  0.3471  0.4089  0.4802
 8333PW      WP29934   3.630   5.392   2.385 -0.1105  0.6674 -0.0851
 8333PW      WM29935   3.803   5.251   2.371  0.2110 -0.4743  0.0069
 8334PW       W29936   7.442   2.764   3.259 -0.1338  0.1507  0.4147
 8334PW      WP29937   7.343   2.860   3.284 -0.4654 -0.1112  0.1424
 8334PW      WM29938   7.357   2.841   3.179 -0.3245  0.1504  0.6118
 8335PW       W29939  10.221   4.420   2.609  0.4122  0.1487 -0.1728
 8335PW      WP29940  10.318   4.496   2.543  0.1684  0.3203 -0.3420
 8335PW      WM29941  10.264   4.310   2.532 -0.2162 -0.3288  0.1126
 8336PW       W29942   0.335   2.807   9.123  0.0240  0.0676  0.2556
 8336PW      WP29943   0.197   2.780   9.116  0.0550 -0.0145 -0.2077
 8336PW      WM29944   0.330   2.779   9.260 -0.2862 -0.1658  0.2039
 8337PW       W29945   1.710   9.835  11.821  0.6116  0.5677  0.2166
 8337PW      WP29946   1.663   9.875  11.947 -0.2134  0.1842  0.0596
 8337PW      WM29947   1.596   9.910  11.791  0.3066 -0.0420 -0.2528
 8338PW       W29948   0.505   1.886   0.182  0.0306 -0.6186  0.4518
 8338PW      WP29949   0.546   1.775   0.109 -0.0351 -0.2075 -0.2552
 8338PW      WM29950   0.493   1.987   0.279 -0.3564 -0.5021  0.2907
 8339PW       W29951   2.102   8.012   3.211 -0.3133  0.3277  0.1332
 8339PW      WP29952   2.020   7.931   3.130  0.3566  0.4340 -0.7204
 8339PW      WM29953   2.215   8.060   3.144 -0.1039 -0.2822  0.0193
 8340PW       W29954   7.591   1.284  12.726  0.0671  0.1978 -0.3331
 8340PW      WP29955   7.671   1.241  12.619 -0.1033 -0.1305 -0.3336
 8340PW      WM29956   7.483   1.196  12.710  0.0438  0.1659 -0.0384
 8341PW       W29957  10.606   1.193   2.558 -0.4005 -0.7132 -0.5851
 8341PW      WP29958  10.537   1.312   2.533  0.2740 -0.0769  0.2812
 8341PW      WM29959  10.728   1.155   2.500 -0.1761 -0.3163 -0.3949
 8342PW       W29960  11.331   3.439  11.444  0.1335  0.2060  0.3680
 8342PW      WP29961  11.252   3.372  11.538 -0.0917  0.1196  0.1210
 8342PW      WM29962  11.373   3.473  11.315 -0.0588 -0.0402  0.2370
 8343PW       W29963   5.027   7.832   2.617 -0.1994  0.0602 -0.0855
 8343PW      WP29964   5.088   7.815   2.492  0.1508  0.3049  0.0464
 8343PW      WM29965   4.903   7.849   2.681 -0.1711 -0.1142  0.0210
 8344PW       W29966  10.265   8.396  11.715 -0.2181 -0.1474  0.3475
 8344PW      WP29967  10.312   8.517  11.767 -0.2130 -0.1572  0.3668
 8344PW      WM29968  10.177   8.310  11.781 -0.2749 -0.3049  0.0750
 8345PW       W29969  10.760   0.745   2.778  0.4430 -0.4972 -0.0154
 8345PW      WP29970  10.789   0.664   2.668 -0.3950 -0.4565 -0.2993
 8345PW      WM29971  10.896   0.779   2.776  0.1859  0.7960  0.1133
 8346PW       W29972   8.624   9.962  13.117 -0.0883  0.2550 -0.1885
 8346PW      WP29973   8.599  10.067  13.207  0.4188 -0.0109  0.2904
 8346PW      WM29974   8.493   9.914  13.125 -0.0870  0.2121 -0.3864
 8347PW       W29975   6.839  10.057   4.207  0.3133  0.0531 -0.1365
 8347PW      WP29976   6.934  10.094   4.302  0.1824 -0.4902  0.2276
 8347PW      WM29977   6.918   9.942   4.217  0.1164 -0.1166 -0.4324
 8348PW       W29978   2.574   7.239  10.171  0.0987 -0.1509 -0.2790
 8348PW      WP29979   2.695   7.253  10.102  0.5641  0.3451  0.5500
 8348PW      WM29980   2.476   7.238  10.271  0.1063  0.6973 -0.2282
 8349PW       W29981   7.285  11.114   1.479 -0.0167  0.0424 -0.4795
 8349PW      WP29982   7.356  10.999   1.515 -0.0989  0.0314 -0.3508
 8349PW      WM29983   7.229  11.049   1.369 -0.4098 -0.1713 -0.1649
 8350PW       W29984   7.967  11.263  12.936 -0.0161  0.1004  0.2069
 8350PW      WP29985   7.880  11.365  12.977 -0.2278 -0.1271  0.3370
 8350PW      WM29986   7.954  11.193  12.816  0.2786 -0.0534  0.2589
 8351PW       W29987   8.998   6.846   2.307  0.2922 -0.0791  0.0391
 8351PW      WP29988   9.007   6.768   2.423  0.0686  0.1363  0.2061
 8351PW      WM29989   8.981   6.747   2.209  0.4236 -0.0202 -0.0439
 8352PW       W29990   7.464   2.624   9.897  0.0579 -0.3747 -0.0319
 8352PW      WP29991   7.456   2.643  10.035  0.2583 -0.0564 -0.0614
 8352PW      WM29992   7.459   2.715   9.791  0.1185  0.1324  0.3831
 8353PW       W29993   1.063   9.073  12.590 -0.2102 -0.0746 -0.2216
 8353PW      WP29994   1.127   9.196  12.571 -0.1042 -0.1479 -0.3477
 8353PW      WM29995   0.927   9.102  12.605 -0.1224  0.2507  0.0102
 8354PW       W29996   7.499   7.788   4.279  0.2095 -0.1629 -0.1137
 8354PW      WP29997   7.401   7.794   4.379  0.4761  0.3426  0.1359
 8354PW      WM29998   7.527   7.731   4.404  0.5589 -0.0637 -0.1412
 8355PW       W29999   1.714   0.314   0.804 -0.4445 -0.0896  0.4745
 8355PW      WP30000   1.639   0.200   0.774 -0.3384 -0.0440  0.0001
 8355PW      WM30001   1.653   0.439   0.817 -0.6566 -0.1552  0.1455
 8356PW       W30002   5.801   8.574   8.626 -0.2857  0.4157  0.0696
 8356PW      WP30003   5.684   8.500   8.647 -0.3341  0.4398 -0.1046
 8356PW      WM30004   5.718   8.687   8.638 -0.1446  0.5143  0.1320
 8357PW       W30005  11.409   5.889   9.517 -0.2204  0.0227  0.4439
 8357PW      WP30006  11.407   5.764   9.579  0.4573 -0.3126 -0.1419
 8357PW      WM30007  11.410   6.025   9.482  0.7250 -0.0507  0.0232
 8358PW       W30008   8.695   7.704   4.326  0.1949 -0.2544 -0.2734
 8358PW      WP30009   8.620   7.740   4.213  0.3451  0.1266 -0.2594
 8358PW      WM30010   8.582   7.629   4.360  0.2737 -0.1432  0.2921
 8359PW       W30011   5.102   4.482   2.521  0.2767  0.4487  0.0057
 8359PW      WP30012   5.026   4.369   2.489  0.4590  0.2285  0.3292
 8359PW      WM30013   5.094   4.587   2.613 -0.1244  0.3043  0.1434
 8360PW       W30014   8.095   5.247   3.855  0.0923  0.0419 -0.3402
 8360PW      WP30015   8.136   5.121   3.899  0.1687  0.0837 -0.2896
 8360PW      WM30016   8.009   5.214   3.750 -0.0344 -0.3625 -0.1201
 8361PW       W30017   8.413   5.653  10.748  0.2708 -0.1432 -0.3242
 8361PW      WP30018   8.399   5.742  10.855 -0.0093  0.1555 -0.5998
 8361PW      WM30019   8.275   5.650  10.723  0.0212 -0.0105  0.7822
 8362PW       W30020   3.109   4.204   2.692  0.2361  0.5807  0.1608
 8362PW      WP30021   3.173   4.160   2.575 -0.1732  0.2817  0.0392
 8362PW      WM30022   3.139   4.243   2.823  0.8149  0.1482  0.1785
 8363PW       W30023   2.234   2.419   0.389  0.1410 -0.4290  0.2361
 8363PW      WP30024   2.203   2.476   0.265  0.2065 -0.4392  0.2152
 8363PW      WM30025   2.282   2.446   0.518 -0.2397 -0.2368  0.3463
 8364PW       W30026   4.443   6.065   9.838  0.0185 -0.2267 -0.1095
 8364PW      WP30027   4.490   6.062   9.707  0.2672 -0.3682 -0.0209
 8364PW      WM30028   4.444   6.146   9.953 -0.1009 -0.0587 -0.2246
 8365PW       W30029   3.434   8.072  12.380 -0.1502 -0.0517  0.4625
 8365PW      WP30030   3.492   8.176  12.453 -0.0345  0.4399 -0.2739
 8365PW      WM30031   3.372   8.188  12.331  0.2471  0.0910  0.2642
 8366PW       W30032   1.845   2.461   1.125 -0.4797  0.3039  0.0476
 8366PW      WP30033   1.878   2.343   1.192  0.3050  0.1731 -0.4955
 8366PW      WM30034   1.897   2.455   0.995 -0.1341 -0.6278  0.1867
 8367PW       W30035   1.941   1.308  13.091  0.3049 -0.1946 -0.1685
 8367PW      WP30036   1.955   1.388  13.205 -0.5597  0.3000 -0.3646
 8367PW      WM30037   1.926   1.194  13.171  0.4270 -0.1088 -0.0202
 8368PW       W30038   3.111   9.455   8.864 -0.2674 -0.0537  0.0899
 8368PW      WP30039   2.995   9.499   8.798 -0.1976  0.0673  0.0463
 8368PW      WM30040   3.249   9.437   8.873 -0.2601  0.0552  0.2242
 8369PW       W30041   3.391   2.196   1.469 -0.1024 -0.0083  0.1116
 8369PW      WP30042   3.266   2.167   1.413  0.0138  0.0067 -0.1633
 8369PW      WM30043   3.451   2.247   1.585 -0.0225  0.2106 -0.0227
 8370PW       W30044   9.961  10.797  12.360  0.2427 -0.0509 -0.0823
 8370PW      WP30045   9.950  10.929  12.408 -0.2956 -0.0274 -0.2302
 8370PW      WM30046   9.828  10.803  12.404  0.3387  0.2438  0.1918
 8371PW       W30047   6.223   0.694   9.253  0.0678  0.1395  0.2572
 8371PW      WP30048   6.339   0.769   9.235  0.2094 -0.1293  0.0152
 8371PW      WM30049   6.095   0.641   9.231  0.0098  0.4048 -0.1117
 8372PW       W30050   2.679  11.331  10.587 -0.4075  0.3971  0.1020
 8372PW      WP30051   2.626  11.231  10.669 -0.7313  0.2947 -0.2193
 8372PW      WM30052   2.566  11.374  10.516 -0.2453 -0.1831 -0.5699
 8373PW       W30053  11.103   8.278   3.700  0.0995  0.2532 -0.1876
 8373PW      WP30054  11.018   8.208   3.614  0.4600 -0.4555 -0.0037
 8373PW      WM30055  11.128   8.176   3.792  0.2949  0.1443 -0.3584
 8374PW       W30056   9.472   5.035   1.689  0.1250 -0.0060 -0.3575
 8374PW      WP30057   9.390   4.955   1.768  0.0881  0.0966 -0.2904
 8374PW      WM30058   9.600   5.091   1.679  0.2079 -0.1189 -0.0032
 8375PW       W30059  11.616   7.665   8.952  0.1800 -0.2113 -0.0994
 8375PW      WP30060  11.675   7.549   8.900  0.0586 -0.2461 -0.1619
 8375PW      WM30061  11.660   7.785   9.008  0.5537 -0.5056  0.2697
 8376PW       W30062  10.006  10.199  11.784 -0.3922 -0.0300 -0.0635
 8376PW      WP30063  10.131  10.194  11.721 -0.2731  0.3145  0.1282
 8376PW      WM30064   9.984  10.197  11.922  0.0037  0.1197  0.0080
 8377PW       W30065   6.154   6.926  10.012 -0.0076  0.1424  0.0174
 8377PW      WP30066   6.173   6.808  10.085 -0.1512  0.2419  0.2223
 8377PW      WM30067   6.016   6.952  10.015 -0.0148  0.1396 -0.2059
 8378PW       W30068   3.469   0.137   0.123 -0.5465  0.2513 -0.2466
 8378PW      WP30069   3.418   0.242   0.201 -0.0601  0.4503 -0.1764
 8378PW      WM30070   3.581   0.155   0.205 -0.2191 -0.0907 -0.5996
 8379PW       W30071   8.988   7.464   1.509  0.4754 -0.5190 -0.6348
 8379PW      WP30072   8.909   7.563   1.449  0.2308 -0.4383 -0.2028
 8379PW      WM30073   9.048   7.347   1.557  0.3899 -0.2056  0.3267
 8380PW       W30074   6.994   4.982   9.244 -0.1440 -0.5048 -0.1884
 8380PW      WP30075   7.043   5.009   9.116  0.1745  0.3454  0.0790
 8380PW      WM30076   7.025   5.014   9.377 -0.5229  0.3417 -0.2741
 8381PW       W30077   7.960   7.491   1.862  0.2559  0.1362  0.1719
 8381PW      WP30078   8.000   7.508   1.728  0.2157  0.2053  0.1688
 8381PW      WM30079   7.920   7.605   1.931 -0.6217 -0.0018 -0.0517
 8382PW       W30080   4.966   0.791   9.976  0.0974 -0.1788 -0.4868
 8382PW      WP30081   5.020   0.700  10.067 -0.0372  0.2608  0.0623
 8382PW      WM30082   4.845   0.809  10.044  0.2808 -0.2562 -0.1293
 8383PW       W30083   4.439   3.463   2.993 -0.1407  0.1007 -0.0317
 8383PW      WP30084   4.326   3.528   3.046 -0.1342  0.0979 -0.0142
 8383PW      WM30085   4.533   3.367   2.952 -0.1931  0.0588 -0.0535
 8384PW       W30086   6.883   4.966   4.106 -0.1960 -0.1129  0.3151
 8384PW      WP30087   6.999   5.044   4.114 -0.2995  0.0067  0.7365
 8384PW      WM30088   6.750   4.992   4.138 -0.2024  0.1182  0.1119
 8385PW       W30089   3.182   6.726  12.575 -0.2790  0.2770 -0.2522
 8385PW      WP30090   3.238   6.763  12.451  0.5903  0.4371  0.1525
 8385PW      WM30091   3.056   6.716  12.633 -0.1720 -0.4445 -0.1038
 8386PW       W30092   7.181   6.238   3.160 -0.0798  0.2914  0.0128
 8386PW      WP30093   7.186   6.111   3.220  0.1281  0.1439 -0.3042
 8386PW      WM30094   7.260   6.352   3.180 -0.0273  0.2396  0.1106
 8387PW       W30095   5.870   6.253   8.695 -0.0500  0.0056 -0.0242
 8387PW      WP30096   5.877   6.291   8.560 -0.5969  0.2054 -0.0083
 8387PW      WM30097   5.835   6.335   8.804  0.4353  0.2073 -0.0088
 8388PW       W30098   6.969   1.302  10.290  0.2626 -0.0482  0.0772
 8388PW      WP30099   7.055   1.324  10.398  0.2789 -0.3321  0.1260
 8388PW      WM30100   6.961   1.309  10.151  0.4041  0.5275  0.0872
 8389PW       W30101   5.612   7.407   1.329 -0.0300 -0.1725  0.0740
 8389PW      WP30102   5.623   7.335   1.210  0.0395 -0.0343 -0.0047
 8389PW      WM30103   5.522   7.488   1.399  0.1108  0.1518 -0.1031
 8390PW       W30104  11.455   2.971   9.571  0.3072 -0.1382  0.3128
 8390PW      WP30105  11.324   3.015   9.550  0.3216 -0.1774  0.1359
 8390PW      WM30106  11.588   2.948   9.534  0.4811  0.5252  0.4611
 8391PW       W30107   3.472   1.338   4.366  0.0810 -0.2963 -0.1513
 8391PW      WP30108   3.423   1.343   4.235 -0.0219 -0.2277 -0.1106
 8391PW      WM30109   3.353   1.285   4.315  0.2063 -0.2693 -0.4822
 8392PW       W30110   8.510   7.713  10.755  0.0017 -0.1434 -0.0977
 8392PW      WP30111   8.442   7.692  10.635 -0.1630  0.3528 -0.1032
 8392PW      WM30112   8.423   7.754  10.857  0.0760 -0.1163 -0.0451
 8393PW       W30113   5.930   0.018   8.869 -0.4772 -0.4161  0.0507
 8393PW      WP30114   6.028  -0.082   8.873  0.3015  0.2806 -0.1733
 8393PW      WM30115   5.931   0.154   8.838  0.0977 -0.4574 -0.1687
 8394PW       W30116   6.828   6.858   0.826  0.2408  0.1177  0.1147
 8394PW      WP30117   6.761   6.973   0.783 -0.1362 -0.0891  0.1298
 8394PW      WM30118   6.943   6.818   0.757  0.2129 -0.4743  0.3862
 8395PW       W30119   4.951   4.398   0.257  0.1812 -0.0578  0.0152
 8395PW      WP30120   4.992   4.498   0.168 -0.1439  0.0436 -0.0301
 8395PW      WM30121   4.886   4.318   0.352  0.5422 -0.0751  0.2570
 8396PW       W30122   6.260   4.168   8.512 -0.2526  0.1470 -0.1946
 8396PW      WP30123   6.183   4.064   8.566 -0.2977  0.1543 -0.2439
 8396PW      WM30124   6.361   4.242   8.575 -0.2591  0.0497 -0.0679
 8397PW       W30125  11.324   7.072  10.721 -0.3132  0.5519 -0.4977
 8397PW      WP30126  11.372   7.173  10.805 -0.2264  0.4386 -0.4083
 8397PW      WM30127  11.440   7.077  10.799 -0.3847  0.1941 -0.3570
 8398PW       W30128   5.017   4.842   9.915 -0.3614  0.0548  0.1826
 8398PW      WP30129   4.950   4.938   9.839 -0.1493  0.2929  0.2858
 8398PW      WM30130   5.038   4.776   9.793 -0.4045  0.3401  0.0149
 8399PW       W30131   8.698   0.906  11.574  0.3288 -0.1563  0.2448
 8399PW      WP30132   8.835   0.935  11.579  0.4125 -0.3873 -0.3136
 8399PW      WM30133   8.805   0.982  11.524  0.3458 -0.2371  0.1551
 8400PW       W30134   9.155   9.290  13.298  0.4743 -0.3567  0.0438
 8400PW      WP30135   9.064   9.222  13.380  0.0961  0.4844  0.3726
 8400PW      WM30136   9.238   9.242  13.400  0.1783 -0.3192  0.3083
 8401PW       W30137   3.168  10.282   3.101  0.5418 -0.3122  0.0915
 8401PW      WP30138   3.055  10.200   3.106  0.2930  0.0230  0.2028
 8401PW      WM30139   3.035  10.247   3.127  0.6434 -0.3125  0.6942
 8402PW       W30140   3.859  10.840  10.103 -0.0491  0.0678  0.2515
 8402PW      WP30141   3.977  10.802  10.168  0.2501  0.4032 -0.0694
 8402PW      WM30142   3.861  10.887   9.971 -0.9766 -0.4177  0.0277
 8403PW       W30143   9.393   3.952   9.969  0.3387  0.1623 -0.1560
 8403PW      WP30144   9.267   3.899   9.940  0.2621 -0.0272  0.4477
 8403PW      WM30145   9.383   4.087   9.931  0.3737  0.1538 -0.1955
 8404PW       W30146   7.252   7.705  13.246  0.3161  0.0958  0.0185
 8404PW      WP30147   7.197   7.683  13.373 -0.2442 -0.0766 -0.2397
 8404PW      WM30148   7.205   7.822  13.305  0.2306 -0.0798  0.3079
 8405PW       W30149   9.406   6.957  12.076 -0.2427 -0.4773  0.2061
 8405PW      WP30150   9.393   7.047  12.183  0.0055  0.1901 -0.2919
 8405PW      WM30151   9.283   6.991  12.019  0.1328  0.2037 -0.2644
 8406PW       W30152   3.389   8.857   0.352  0.1967 -0.3742 -0.2373
 8406PW      WP30153   3.518   8.871   0.404  0.0376  0.0684  0.0737
 8406PW      WM30154   3.483   8.753   0.355  0.4496 -0.1708 -0.6871
 8407PW       W30155   7.885  11.983   1.910 -0.1967 -0.0225  0.1737
 8407PW      WP30156   7.978  11.900   1.974  0.3692  0.1856 -0.3263
 8407PW      WM30157   7.788  11.984   2.011 -0.1062  0.1414  0.2617
 8408PW       W30158   4.271  11.076   1.288 -0.1371  0.0107  0.0131
 8408PW      WP30159   4.382  11.042   1.211 -0.2179 -0.3771  0.0575
 8408PW      WM30160   4.190  11.033   1.182  0.1259 -0.0248 -0.1773
 8409PW       W30161   7.407   5.094  11.860 -0.1222 -0.4759  0.1960
 8409PW      WP30162   7.440   4.958  11.869  0.1215 -0.4310  0.0357
 8409PW      WM30163   7.439   5.166  11.976 -0.1749 -0.0742 -0.0290
 8410PW       W30164   0.923   2.010   4.503 -0.3620  0.4748  0.0520
 8410PW      WP30165   0.942   1.990   4.640 -0.0976 -0.0171 -0.0466
 8410PW      WM30166   0.801   1.942   4.513 -0.0795 -0.0559  0.0808
 8411PW       W30167   6.745  11.620   3.669  0.3461  0.4952  0.1059
 8411PW      WP30168   6.695  11.528   3.576  0.7448  0.3417  0.0322
 8411PW      WM30169   6.738  11.593   3.806 -0.5777 -0.0590 -0.0106
 8412PW       W30170   4.163   6.925  10.044  0.3788  0.1325 -0.2414
 8412PW      WP30171   4.119   6.841   9.941 -0.0035  0.1193 -0.0776
 8412PW      WM30172   4.299   6.901  10.067  0.3125 -0.4490 -0.3828
 8413PW       W30173   3.480   8.911   3.456 -0.4762  0.2204 -0.1177
 8413PW      WP30174   3.463   8.952   3.589 -0.6600  0.8274 -0.3113
 8413PW      WM30175   3.459   8.777   3.492 -0.4845  0.1695 -0.3041
 8414PW       W30176   1.270   6.440   4.648  0.3916 -0.1623 -0.5162
 8414PW      WP30177   1.247   6.574   4.680  0.3170 -0.2384 -0.2368
 8414PW      WM30178   1.219   6.310   4.636  0.3807 -0.2040 -0.1047
 8415PW       W30179  10.743  11.671  13.004  0.4050 -0.1845  0.0607
 8415PW      WP30180  10.632  11.755  13.003  0.5353 -0.0089  0.0748
 8415PW      WM30181  10.698  11.561  13.078  0.1010 -0.0649  0.0593
 8416PW       W30182   0.186  11.121   0.654 -0.6744 -0.1054 -0.0291
 8416PW      WP30183   0.236  10.992   0.677 -0.1632  0.0010 -0.4576
 8416PW      WM30184   0.298  11.126   0.570 -0.1254  0.0973  0.6651
 8417PW       W30185  11.205   9.248   9.710  0.0969  0.1906 -0.3719
 8417PW      WP30186  11.325   9.222   9.777  0.1423  0.6691 -0.2499
 8417PW      WM30187  11.169   9.220   9.577 -0.1775  0.3695 -0.3408
 8418PW       W30188  10.247   1.655   8.490 -0.1864 -0.1361 -0.2264
 8418PW      WP30189  10.124   1.699   8.538 -0.0726 -0.1213  0.0600
 8418PW      WM30190  10.258   1.618   8.624 -0.5815 -0.6137 -0.3114
 8419PW       W30191   5.555   8.208  12.292 -0.1000 -0.1127 -0.0079
 8419PW      WP30192   5.578   8.075  12.256 -0.5254 -0.2219  0.0950
 8419PW      WM30193   5.437   8.242  12.358  0.1065  0.1712  0.2278
 8420PW       W30194   7.459   6.091   0.075 -0.2612 -0.0482  0.3253
 8420PW      WP30195   7.395   6.121   0.195  0.3406  0.1916  0.6046
 8420PW      WM30196   7.598   6.071   0.083 -0.1336  0.6141  0.0831
 8421PW       W30197  10.027  11.780   0.043 -0.7760 -0.1439  0.8668
 8421PW      WP30198  10.137  11.707  -0.003 -0.3380  0.5221  0.7732
 8421PW      WM30199  10.094  11.740   0.159  0.4943  0.4194  0.4150
 8422PW       W30200   8.486  10.393  12.058 -0.0496 -0.1379 -0.2313
 8422PW      WP30201   8.575  10.302  12.116  0.2437  0.3600  0.1333
 8422PW      WM30202   8.432  10.287  12.131  0.7019 -0.0972  0.4489
 8423PW       W30203   8.377   6.109   8.568 -0.0232  0.1924 -0.2885
 8423PW      WP30204   8.503   6.126   8.626 -0.0384 -0.7691  0.1121
 8423PW      WM30205   8.415   5.979   8.601  0.3611  0.3687  0.0003
 8424PW       W30206   4.739   2.011   1.157 -0.3146  0.0987  0.2582
 8424PW      WP30207   4.697   2.034   1.288  0.0508 -0.2860  0.4538
 8424PW      WM30208   4.810   1.916   1.231 -0.6659 -0.2570  0.1538
 8425PW       W30209   9.036   8.259  11.861 -0.2173  0.0367  0.1007
 8425PW      WP30210   9.066   8.315  11.985  0.0752 -0.0225  0.0598
 8425PW      WM30211   9.066   8.125  11.889 -0.3144  0.0391  0.2202
 8426PW       W30212   4.758   1.572   2.934  0.1509  0.2065 -0.0352
 8426PW      WP30213   4.786   1.506   2.813 -0.6181 -0.0993 -0.0710
 8426PW      WM30214   4.829   1.671   2.864 -0.2863  0.6053  0.0648
 8427PW       W30215   7.678  11.624  12.275  0.0591  0.0077 -0.0359
 8427PW      WP30216   7.580  11.582  12.365  0.4663 -0.0884  0.3815
 8427PW      WM30217   7.783  11.554  12.214  0.0583 -0.2550  0.2561
 8428PW       W30218   1.888  10.319   3.327 -0.1174 -0.1891  0.1028
 8428PW      WP30219   1.915  10.456   3.325  0.3094 -0.2617  0.3982
 8428PW      WM30220   1.755  10.362   3.343 -0.0515 -0.0957  0.4458
 8429PW       W30221   3.362  11.389   4.142 -0.1844  0.1025  0.0265
 8429PW      WP30222   3.484  11.414   4.206 -0.2972 -0.1764  0.3628
 8429PW      WM30223   3.404  11.385   4.008  0.1859 -0.0197  0.1403
 8430PW       W30224   8.645   5.986  12.999 -0.1140 -0.2411  0.3360
 8430PW      WP30225   8.715   6.013  13.117  0.3019  0.3127 -0.0140
 8430PW      WM30226   8.736   6.090  13.016  0.2822 -0.4143 -0.4748
 8431PW       W30227   7.754   2.518  10.349 -0.3234  0.0353 -0.0844
 8431PW      WP30228   7.821   2.499  10.470  0.6631 -0.2274 -0.6118
 8431PW      WM30229   7.683   2.445  10.253  0.0641 -0.1445 -0.2463
 8432PW       W30230   0.826   0.179  11.208 -0.0601 -0.0006  0.1056
 8432PW      WP30231   0.957   0.193  11.162 -0.2719  0.2567 -0.4684
 8432PW      WM30232   0.840   0.043  11.236 -0.2360  0.0710  0.5968
 8433PW       W30233   0.076   8.018  11.510 -0.4087  0.5185 -0.3564
 8433PW      WP30234   0.092   7.961  11.384  0.1770 -0.3261  0.0486
 8433PW      WM30235   0.156   8.065  11.406  0.2358 -0.0722 -0.1667
 8434PW       W30236   7.833   0.572  11.227  0.3932  0.2125  0.0893
 8434PW      WP30237   7.801   0.598  11.094 -0.2808 -0.3113  0.1176
 8434PW      WM30238   7.841   0.678  11.318  0.4988  0.0326  0.2961
 8435PW       W30239  10.431  10.058   2.732  0.0499 -0.0804 -0.0947
 8435PW      WP30240  10.298  10.029   2.704  0.0904  0.1024 -0.5054
 8435PW      WM30241  10.456   9.923   2.756  0.9748  0.1061  0.2009
 8436PW       W30242   6.951   9.424   1.211 -0.1486 -0.1782  0.1509
 8436PW      WP30243   7.028   9.421   1.094  0.2401  0.3449  0.3750
 8436PW      WM30244   6.841   9.339   1.188 -0.4031  0.0854  0.3476
 8437PW       W30245   9.322   3.278   2.707  0.0104 -0.3748  0.0248
 8437PW      WP30246   9.211   3.216   2.647 -0.0979 -0.4130  0.2599
 8437PW      WM30247   9.362   3.238   2.578  0.4795  0.1232  0.0007
 8438PW       W30248   1.826   0.637   0.455  0.2686  0.3969 -0.1633
 8438PW      WP30249   1.950   0.643   0.391  0.2254  0.2483 -0.2636
 8438PW      WM30250   1.809   0.499   0.440  0.2219  0.3864 -0.0214
 8439PW       W30251   8.523   2.421   4.764 -0.7495  0.1407 -0.1201
 8439PW      WP30252   8.558   2.373   4.891 -0.0284 -0.1795 -0.4084
 8439PW      WM30253   8.533   2.367   4.636 -0.1000  0.2092 -0.1173
 8440PW       W30254   2.329  11.480   5.182 -0.0227  0.0162  0.3410
 8440PW      WP30255   2.213  11.425   5.239 -0.1124  0.3334  0.4774
 8440PW      WM30256   2.277  11.597   5.126 -0.7590 -0.4746 -0.0995
 8441PW       W30257   4.029   2.907  11.159  0.3875  0.0471 -0.0776
 8441PW      WP30258   4.115   2.826  11.084 -0.2398 -0.7504 -0.0059
 8441PW      WM30259   4.090   2.921  11.284 -0.5961  0.0955  0.4441
 8442PW       W30260   5.583   5.426   3.595 -0.1567  0.4693  0.1703
 8442PW      WP30261   5.721   5.445   3.579 -0.0795 -0.0098  0.1777
 8442PW      WM30262   5.475   5.337   3.592  0.0736  0.1874 -0.2878
 8443PW       W30263   6.411  11.865  12.662  0.7379 -0.4483  0.1464
 8443PW      WP30264   6.340  11.745  12.671 -0.1636  0.0158 -0.1476
 8443PW      WM30265   6.515  11.937  12.601  0.0645  0.5759  0.0738
 8444PW       W30266   8.090   0.905   1.922 -0.2128 -0.1044 -0.1672
 8444PW      WP30267   8.011   0.837   2.014  0.3115 -0.3035  0.1561
 8444PW      WM30268   8.219   0.928   1.969 -0.3728  0.0907  0.1960
 8445PW       W30269   2.616   7.014   9.119 -0.2909  0.9176  0.0839
 8445PW      WP30270   2.704   7.034   9.012 -0.0573  0.0747  0.0852
 8445PW      WM30271   2.479   7.018   9.093 -0.3715 -0.3413 -0.0192
 8446PW       W30272   2.320   4.722  13.019  0.0345  0.1113 -0.0828
 8446PW      WP30273   2.359   4.794  13.133  0.1806 -0.1606  0.0463
 8446PW      WM30274   2.275   4.590  13.007 -0.0568  0.1612 -0.3072
 8447PW       W30275   8.246   3.623   4.055  0.0085  0.1949 -0.2804
 8447PW      WP30276   8.375   3.645   4.106  0.0626 -0.0752 -0.2923
 8447PW      WM30277   8.232   3.556   3.933 -0.3718 -0.4825  0.1078
 8448PW       W30278   2.056   5.508  11.998 -0.0968  0.3698  0.2487
 8448PW      WP30279   2.016   5.586  11.888 -0.0448 -0.0182 -0.0554
 8448PW      WM30280   2.192   5.479  11.994 -0.2428 -0.3826 -0.0339
 8449PW       W30281   4.825   8.359   2.831  0.2131  0.4168 -0.1787
 8449PW      WP30282   4.782   8.297   2.713  0.3874  0.1951 -0.1298
 8449PW      WM30283   4.964   8.354   2.850  0.1627  0.3535  0.2157
 8450PW       W30284   8.537   3.739  12.660  0.3490  0.2916  0.1048
 8450PW      WP30285   8.667   3.695  12.631  0.2502  0.0439  0.0237
 8450PW      WM30286   8.574   3.874  12.661  0.2677  0.3141  0.2523
 8451PW       W30287   5.712   8.346   3.554 -0.0416 -0.1280 -0.0618
 8451PW      WP30288   5.817   8.285   3.622  0.1841  0.5184  0.2039
 8451PW      WM30289   5.643   8.334   3.675 -0.2318  0.1099 -0.1435
 8452PW       W30290   3.803  11.287   9.828 -0.1058 -0.0570 -0.0669
 8452PW      WP30291   3.715  11.179   9.841  0.0956 -0.2539 -0.2820
 8452PW      WM30292   3.722  11.382   9.891 -0.0147 -0.0125 -0.0161
 8453PW       W30293   5.076   8.963  12.048 -0.3022 -0.3933 -0.3737
 8453PW      WP30294   5.196   8.907  12.094 -0.2420 -0.0312 -0.0726
 8453PW      WM30295   5.031   9.012  11.925  0.2366  0.0622 -0.4069
 8454PW       W30296   3.308   6.503  13.147  0.0159 -0.2861  0.1156
 8454PW      WP30297   3.396   6.506  13.256  0.4876  0.1337 -0.2503
 8454PW      WM30298   3.358   6.559  13.028  0.1539 -0.2240  0.2006
 8455PW       W30299  10.246   7.851   5.057 -0.2067 -0.0232  0.7171
 8455PW      WP30300  10.228   7.977   4.999 -0.3575 -0.3233  0.0639
 8455PW      WM30301  10.380   7.837   5.018 -0.4243 -0.4544  0.0395
 8456PW       W30302   8.514   7.595   1.619  0.2508 -0.2646  0.2691
 8456PW      WP30303   8.529   7.458   1.598 -0.2018 -0.3324  0.3264
 8456PW      WM30304   8.631   7.666   1.591  0.0623 -0.0594 -0.0306
 8457PW       W30305   4.738   1.904  10.580 -0.2614 -0.3094  0.2555
 8457PW      WP30306   4.656   1.990  10.655 -0.0682  0.1810 -0.0658
 8457PW      WM30307   4.851   1.851  10.641 -0.0264 -0.1770 -0.0508
 8458PW       W30308   7.252  11.956  12.306  0.3781  0.3323 -0.0623
 8458PW      WP30309   7.312  11.921  12.185  0.0580 -0.4725 -0.0149
 8458PW      WM30310   7.175  12.073  12.311  0.1257  0.1687 -0.0258
 8459PW       W30311  10.241   6.950   0.811 -0.0245 -0.1106 -0.1919
 8459PW      WP30312  10.362   7.016   0.784  0.1124 -0.4311 -0.3948
 8459PW      WM30313  10.330   6.842   0.820  0.1192  0.0082 -0.1479
 8460PW       W30314   7.243  10.825  12.624  0.0280 -0.2789 -0.0175
 8460PW      WP30315   7.185  10.789  12.746  0.3604  0.3221  0.3451
 8460PW      WM30316   7.222  10.738  12.516  0.2037 -0.1865 -0.1280
 8461PW       W30317   7.538   9.353  11.138 -0.3066  0.2607 -0.0521
 8461PW      WP30318   7.445   9.258  11.181  0.1470 -0.2185 -0.0751
 8461PW      WM30319   7.525   9.318  11.003  0.0687  0.2155 -0.0825
 8462PW       W30320   5.413   6.218   4.803  0.3472 -0.1570 -0.3504
 8462PW      WP30321   5.284   6.252   4.845  0.3752 -0.1927 -0.2334
 8462PW      WM30322   5.467   6.123   4.890  0.2109  0.3099  0.2748
 8463PW       W30323   7.518   9.405   3.414 -0.3316 -0.5337 -0.0985
 8463PW      WP30324   7.607   9.363   3.514  0.0558  0.0025 -0.2020
 8463PW      WM30325   7.420   9.482   3.350  0.1016  0.0661 -0.0770
 8464PW       W30326   2.292   5.349   8.427 -0.5628  0.0903 -0.1824
 8464PW      WP30327   2.296   5.209   8.417 -0.0651  0.0708  0.1373
 8464PW      WM30328   2.245   5.428   8.533 -0.1109 -0.0926  0.1694
 8465PW       W30329   7.494   8.435   3.568  0.2585  0.1616 -0.2477
 8465PW      WP30330   7.617   8.496   3.542  0.2092  0.3563 -0.0395
 8465PW      WM30331   7.406   8.544   3.582  0.0797 -0.0097 -0.0126
 8466PW       W30332   4.255   0.535  11.049 -0.0710  0.0295  0.3246
 8466PW      WP30333   4.352   0.533  10.947 -0.0142  0.2530  0.3720
 8466PW      WM30334   4.267   0.646  11.133  0.0760  0.6860 -0.4923
 8467PW       W30335   3.008   5.721  12.659 -0.1580  0.2311  0.1839
 8467PW      WP30336   3.135   5.667  12.635 -0.1745  0.2722 -0.0017
 8467PW      WM30337   2.876   5.765  12.648 -0.2180  0.0597  0.2036
 8468PW       W30338   9.086   7.476   4.075 -0.1299 -0.3806  0.3473
 8468PW      WP30339   9.124   7.377   3.985 -0.2117 -0.0672 -0.0450
 8468PW      WM30340   9.191   7.422   4.150  0.2258 -0.1985 -0.0035
 8469PW       W30341   0.195   3.295   0.097  0.2593  0.0744  0.0733
 8469PW      WP30342   0.275   3.219   0.011  0.0751 -0.2861  0.2081
 8469PW      WM30343   0.094   3.360   0.025  0.1869  0.2990  0.3679
 8470PW       W30344   9.169   5.997  13.219  0.1375 -0.0101 -0.3754
 8470PW      WP30345   9.261   5.962  13.119  0.1860 -0.0894 -0.3035
 8470PW      WM30346   9.236   5.903  13.299 -0.2299  0.3141  0.3658
 8471PW       W30347  10.022   3.331   8.882  0.2045  0.3153 -0.0865
 8471PW      WP30348  10.146   3.389   8.851  0.3431  0.2056  0.2436
 8471PW      WM30349   9.937   3.442   8.871 -0.0278  0.1034 -0.6493
 8472PW       W30350   8.820   4.565  11.785  0.1515  0.3211  0.3096
 8472PW      WP30351   8.855   4.671  11.700 -0.0786  0.0971 -0.0787
 8472PW      WM30352   8.713   4.622  11.856 -0.2026  0.1590 -0.0759
 8473PW       W30353   1.645   5.957  12.999  0.1362 -0.0276  0.1136
 8473PW      WP30354   1.760   5.961  13.078  0.0577  0.6879  0.2210
 8473PW      WM30355   1.712   5.954  12.876 -0.0517 -0.1502  0.0100
 8474PW       W30356  11.972   2.550   1.573 -0.1748 -0.0427 -0.0823
 8474PW      WP30357  12.000   2.468   1.463 -0.1352  0.1673 -0.2302
 8474PW      WM30358  11.940   2.662   1.496 -0.3377  0.3365  0.5038
 8475PW       W30359  10.037   4.751   9.015 -0.3293  0.2649  0.4728
 8475PW      WP30360   9.909   4.748   9.071 -0.5185  0.1582  0.0497
 8475PW      WM30361  10.020   4.817   8.893 -0.0844  0.3174  0.4645
 8476PW       W30362   7.327   2.326   3.542 -0.0400 -0.0291 -0.0017
 8476PW      WP30363   7.431   2.281   3.624  0.1725 -0.0474 -0.2753
 8476PW      WM30364   7.196   2.366   3.571 -0.1362 -0.5927  0.4291
 8477PW       W30365   6.942   0.616   8.440  0.2136  0.0939 -0.1668
 8477PW      WP30366   6.840   0.533   8.391 -0.0242  0.3974 -0.2011
 8477PW      WM30367   6.930   0.753   8.415 -0.0535  0.0566 -0.2568
 8478PW       W30368  11.861   9.816  12.108  0.1665  0.2787 -0.4546
 8478PW      WP30369  11.918   9.688  12.111 -0.0537  0.1814 -0.0537
 8478PW      WM30370  11.849   9.945  12.162 -0.1915  0.0806 -0.0297
 8479PW       W30371   9.740   8.330  10.273  0.0224 -0.2892 -0.2146
 8479PW      WP30372   9.785   8.267  10.390  0.5444  0.1250 -0.1731
 8479PW      WM30373   9.823   8.418  10.203 -0.1373  0.2119  0.1909
 8480PW       W30374   7.828  11.065  11.828 -0.4525  0.1161  0.2589
 8480PW      WP30375   7.874  11.103  11.954 -0.2214  0.0333  0.2015
 8480PW      WM30376   7.804  10.928  11.836 -0.0887  0.0470  0.2489
 8481PW       W30377   9.018   6.717   5.734  0.0120  0.0951 -0.2532
 8481PW      WP30378   8.974   6.845   5.698  0.0641  0.2137  0.0784
 8481PW      WM30379   8.996   6.589   5.683  0.2954 -0.0689  0.0173
 8482PW       W30380   4.251   1.053   2.643  0.0109 -0.1086 -0.3324
 8482PW      WP30381   4.234   1.101   2.773  0.3309  0.3538 -0.4483
 8482PW      WM30382   4.229   0.948   2.734 -0.1273 -0.0214 -0.2651
 8483PW       W30383   9.029   0.443  12.541 -0.2160 -0.0758  0.1054
 8483PW      WP30384   9.164   0.447  12.580 -0.2164  0.3857  0.0813
 8483PW      WM30385   9.025   0.427  12.402 -0.2566 -0.2988  0.1301
 8484PW       W30386   3.115  11.641  10.564  0.2323 -0.1945  0.5311
 8484PW      WP30387   3.118  11.564  10.448  0.2914 -0.1358  0.4930
 8484PW      WM30388   3.248  11.613  10.596  0.5186  0.2334 -0.1650
 8485PW       W30389   9.895   9.283  11.690  0.2902  0.1045 -0.0200
 8485PW      WP30390   9.930   9.152  11.657  0.3408  0.1494 -0.1466
 8485PW      WM30391   9.851   9.238  11.815  0.1631  0.0808 -0.0733
 8486PW       W30392  11.125   4.251  13.289  0.1368 -0.1674  0.2323
 8486PW      WP30393  11.113   4.387  13.316  0.4040 -0.1801  0.4353
 8486PW      WM30394  11.058   4.163  13.202  0.4024  0.1276 -0.2940
 8487PW       W30395   2.631   0.606  12.209  0.4967 -0.1866 -0.1960
 8487PW      WP30396   2.595   0.728  12.150  0.1430 -0.1883  0.0006
 8487PW      WM30397   2.599   0.664  12.332  0.2959 -0.5986 -0.0446
 8488PW       W30398   1.871   4.952   2.321 -0.2453 -0.3119  0.3286
 8488PW      WP30399   1.986   5.009   2.377 -0.2202 -0.6114  0.5934
 8488PW      WM30400   1.845   5.053   2.415  0.2653 -0.1353  0.2949
 8489PW       W30401   8.702  10.898   0.061  0.1816  0.2487  0.0752
 8489PW      WP30402   8.687  11.023   0.000  0.4415  0.1478 -0.2074
 8489PW      WM30403   8.594  10.971   0.113 -0.2849 -0.6650  0.5135
 8490PW       W30404  10.686   1.433   1.774 -0.1792  0.0236 -0.2087
 8490PW      WP30405  10.680   1.511   1.657  0.3136 -0.1937 -0.3921
 8490PW      WM30406  10.600   1.455   1.882 -0.6223  0.2109 -0.5845
 8491PW       W30407   2.963   8.983  12.148 -0.2306 -0.0700 -0.1937
 8491PW      WP30408   2.955   8.889  12.251  0.1569  0.1232  0.0252
 8491PW      WM30409   3.060   9.079  12.181  0.0830 -0.4462  0.0212
 8492PW       W30410   2.916   1.843   0.365 -0.0563 -0.2044  0.1750
 8492PW      WP30411   3.030   1.841   0.284 -0.2377 -0.4319 -0.0839
 8492PW      WM30412   2.929   1.837   0.505 -0.0323 -0.0634  0.1786
 8493PW       W30413  11.141  11.075   8.378  0.8325  0.2880 -0.3676
 8493PW      WP30414  11.169  11.213   8.372  0.1080  0.4745  0.0008
 8493PW      WM30415  11.181  11.021   8.501  0.4971 -0.2418 -0.4752
 8494PW       W30416   0.784  11.920   9.541  0.2326 -0.1154  0.6030
 8494PW      WP30417   0.898  11.879   9.470  0.3747  0.1605  0.6630
 8494PW      WM30418   0.710  11.805   9.516 -0.3703  0.2587  0.5718
 8495PW       W30419   5.038   7.816   8.323  0.2853  0.0832 -0.5100
 8495PW      WP30420   5.123   7.919   8.366 -0.0713  0.2685 -0.2199
 8495PW      WM30421   5.045   7.845   8.460 -0.2417 -0.3880 -0.3631
 8496PW       W30422   4.138   2.863   1.323 -0.3496  0.0920  0.2316
 8496PW      WP30423   4.242   2.920   1.249 -0.7414  0.3199 -0.1649
 8496PW      WM30424   4.108   2.773   1.426  0.0769  0.1177  0.3912
 8497PW       W30425   2.634  10.166  11.478  0.4280  0.3716 -0.2918
 8497PW      WP30426   2.497  10.190  11.462  0.3976  0.0253 -0.6102
 8497PW      WM30427   2.708  10.115  11.371 -0.3710 -0.6839 -0.4366
 8498PW       W30428   9.823   7.174  12.686  0.3599 -0.0983 -0.3481
 8498PW      WP30429   9.825   7.107  12.809 -0.6723 -0.1712 -0.3274
 8498PW      WM30430   9.755   7.086  12.600 -0.5040 -0.0373  0.2075
 8499PW       W30431   3.443   0.243  13.034 -0.0322  0.3784  0.1293
 8499PW      WP30432   3.371   0.185  13.139  0.3337 -0.5574 -0.0881
 8499PW      WM30433   3.378   0.243  12.910 -0.0993  0.5270  0.1634
 8500PW       W30434   0.483   0.815  13.171  0.0713  0.4011 -0.1795
 8500PW      WP30435   0.416   0.831  13.049  0.1590  0.1391 -0.2665
 8500PW      WM30436   0.556   0.696  13.158 -0.4021  0.0213  0.3837
 8501PW       W30437   9.847   3.233   9.471 -0.1648 -0.1876 -0.3389
 8501PW      WP30438   9.746   3.284   9.388 -0.4116 -0.3927 -0.1695
 8501PW      WM30439   9.855   3.138   9.368  0.4791 -0.0419 -0.4453
 8502PW       W30440   3.018   9.500   0.111 -0.2673 -0.6968 -0.0496
 8502PW      WP30441   3.088   9.424   0.016  0.1111  0.1684 -0.5133
 8502PW      WM30442   2.886   9.519   0.069 -0.1816 -0.4060 -0.2000
 8503PW       W30443   6.536  10.913   1.295 -0.1514 -0.3774  0.0677
 8503PW      WP30444   6.662  10.968   1.322 -0.4410  0.4195 -0.0696
 8503PW      WM30445   6.412  10.959   1.340 -0.0399  0.0762 -0.0576
 8504PW       W30446   8.556   0.002  10.095  0.3396 -0.1516 -0.0035
 8504PW      WP30447   8.481   0.037   9.982  0.1148 -0.0085  0.1848
 8504PW      WM30448   8.609   0.005  10.224 -0.0737 -0.0250  0.1736
 8505PW       W30449   4.175   9.536  11.759 -0.2349  0.0991  0.1527
 8505PW      WP30450   4.103   9.603  11.658  0.1418  0.0426 -0.1638
 8505PW      WM30451   4.161   9.475  11.884  0.5368  0.4806  0.4595
 8506PW       W30452   8.908   1.612   2.561  0.3476 -0.0256 -0.0564
 8506PW      WP30453   9.025   1.681   2.593  0.0154  0.4947  0.0849
 8506PW      WM30454   9.011   1.583   2.469  0.3863  0.0378 -0.0329
 8507PW       W30455   6.603   5.071   0.595  0.2528  0.1144  0.0064
 8507PW      WP30456   6.671   5.066   0.717  0.0029  0.1197  0.1472
 8507PW      WM30457   6.467   5.092   0.571  0.2446 -0.0267 -0.0783
 8508PW       W30458   0.253   9.423   0.753 -0.3213 -0.4395 -0.3623
 8508PW      WP30459   0.181   9.543   0.743 -0.0847 -0.2600 -0.0155
 8508PW      WM30460   0.358   9.361   0.821 -0.1834 -0.0633 -0.2208
 8509PW       W30461   1.514   7.169   1.257 -0.0847  0.1960 -0.0364
 8509PW      WP30462   1.581   7.209   1.374  0.4867 -0.1023 -0.2416
 8509PW      WM30463   1.576   7.120   1.142 -0.3068 -0.2805  0.0359
 8510PW       W30464   6.917   1.296   4.042 -0.3741 -0.0950 -0.1461
 8510PW      WP30465   6.948   1.375   3.930  0.0695 -0.3383 -0.2045
 8510PW      WM30466   7.046   1.245   4.025 -0.0058  0.5139  0.5234
 8511PW       W30467   9.613   9.971   2.498  0.5020 -0.3067  0.0083
 8511PW      WP30468   9.651  10.000   2.629 -0.3304  0.1582  0.1838
 8511PW      WM30469   9.747   9.953   2.459  0.6009 -0.4932  0.4106
 8512PW       W30470   7.644  10.103   2.275 -0.5537  0.0512 -0.3896
 8512PW      WP30471   7.718  10.212   2.324  0.2902 -0.3652 -0.6431
 8512PW      WM30472   7.608  10.104   2.411  0.5712 -0.1433 -0.0386
 8513PW       W30473  10.843  10.288  10.353  0.3241  0.0049  0.1806
 8513PW      WP30474  10.730  10.281  10.434  0.0482  0.3001 -0.1621
 8513PW      WM30475  10.886  10.191  10.445 -0.2424 -0.5031 -0.0557
 8514PW       W30476   7.333   0.841  10.407 -0.5337  0.0889 -0.4524
 8514PW      WP30477   7.473   0.850  10.401 -0.4628  0.5205  0.6702
 8514PW      WM30478   7.244   0.878  10.508  0.0209  0.2895 -0.0130
 8515PW       W30479   4.617   0.625   9.695  0.0589 -0.4314  0.3153
 8515PW      WP30480   4.697   0.521   9.743  0.4059 -0.2861  0.0774
 8515PW      WM30481   4.538   0.731   9.741  0.0154 -0.4030  0.1773
 8516PW       W30482   8.356   1.825   3.996 -0.2699 -0.0376 -0.0763
 8516PW      WP30483   8.402   1.770   4.116 -0.1803 -0.2781 -0.2162
 8516PW      WM30484   8.216   1.816   3.992 -0.3120 -0.0212  0.6722
 8517PW       W30485  10.525   3.805  10.104  0.1416  0.0088 -0.2774
 8517PW      WP30486  10.433   3.910  10.111  0.0030 -0.1165 -0.1818
 8517PW      WM30487  10.610   3.914  10.129 -0.2897  0.2985 -0.0135
 8518PW       W30488   1.354  10.640  10.013  0.0502  0.2751 -0.2081
 8518PW      WP30489   1.227  10.621  10.069 -0.0575  0.5256 -0.3563
 8518PW      WM30490   1.353  10.730  10.121  0.2246 -0.1449  0.1629
 8519PW       W30491   1.672   7.748   1.714 -0.0306  0.5555  0.2421
 8519PW      WP30492   1.621   7.681   1.602  0.0272  0.2365  0.4027
 8519PW      WM30493   1.615   7.632   1.768 -0.1510  0.5781  0.1665
 8520PW       W30494   4.026   3.540   1.596 -0.2048 -0.2068 -0.2573
 8520PW      WP30495   3.909   3.598   1.547 -0.0414 -0.0018 -0.4116
 8520PW      WM30496   4.125   3.546   1.695 -0.0224 -0.3161 -0.4293
 8521PW       W30497   1.966   7.111   9.653 -0.0434 -0.5180 -0.2249
 8521PW      WP30498   1.834   7.080   9.618 -0.0889 -0.3694 -0.1896
 8521PW      WM30499   1.892   7.134   9.770  0.3603  0.2726 -0.0895
 8522PW       W30500   5.213   2.015  12.110  0.4397  0.1257 -0.4712
 8522PW      WP30501   5.301   2.013  12.219 -0.4403 -0.0314  0.3039
 8522PW      WM30502   5.208   2.144  12.164 -0.7182 -0.0183 -0.1077
 8523PW       W30503   7.762   3.626  12.536 -0.0431  0.1575 -0.0896
 8523PW      WP30504   7.886   3.603  12.594  0.0018  0.0723 -0.2164
 8523PW      WM30505   7.688   3.671  12.426 -0.2951  0.3172  0.1397
 8524PW       W30506  10.050   3.463  12.682  0.2370 -0.2460 -0.1101
 8524PW      WP30507  10.039   3.592  12.630  0.2055 -0.2520 -0.1184
 8524PW      WM30508  10.174   3.431  12.624  0.1271  0.0212 -0.5089
 8525PW       W30509   7.200  12.015  10.374 -0.0305 -0.3420 -0.1361
 8525PW      WP30510   7.074  11.969  10.334 -0.0332 -0.4278 -0.0313
 8525PW      WM30511   7.171  12.149  10.341 -0.3825 -0.2121  0.5946
 8526PW       W30512  10.832   3.918   3.282 -0.1369 -0.5232 -0.0183
 8526PW      WP30513  10.841   3.811   3.192 -0.3000 -0.2445 -0.3748
 8526PW      WM30514  10.737   3.993   3.213 -0.1263 -0.6105 -0.1299
 8527PW       W30515   6.698   9.010   2.216  0.3250 -0.0668 -0.1489
 8527PW      WP30516   6.776   8.960   2.321  0.0628 -0.3359 -0.0762
 8527PW      WM30517   6.701   8.871   2.204 -0.0339 -0.0714 -0.2573
 8528PW       W30518   3.984   2.166   8.502 -0.2164 -0.3826  0.1207
 8528PW      WP30519   3.926   2.052   8.444 -0.4305 -0.0097 -0.4377
 8528PW      WM30520   3.956   2.252   8.609 -0.0702 -0.3957  0.1700
 8529PW       W30521   4.136   4.679  10.665 -0.2235  0.1098  0.0706
 8529PW      WP30522   4.161   4.564  10.588 -0.1712  0.0244  0.2133
 8529PW      WM30523   4.256   4.750  10.653 -0.3141  0.2523 -0.0012
 8530PW       W30524   9.309   3.258  10.644 -0.1043  0.3050 -0.1179
 8530PW      WP30525   9.390   3.150  10.609  0.0386  0.3913 -0.0606
 8530PW      WM30526   9.172   3.248  10.616 -0.0116 -0.3095 -0.4218
 8531PW       W30527  11.496   0.497  10.848  0.1736 -0.0771  0.0587
 8531PW      WP30528  11.385   0.483  10.932  0.2390 -0.1825  0.1298
 8531PW      WM30529  11.468   0.533  10.981 -0.2916 -0.0686 -0.0334
 8532PW       W30530  11.645   3.545   2.413 -0.1541  0.3518  0.1368
 8532PW      WP30531  11.615   3.437   2.329 -0.1557  0.0744  0.4823
 8532PW      WM30532  11.629   3.579   2.548 -0.1286 -0.0860  0.2587
 8533PW       W30533   2.577   2.450   4.473  0.1843  0.4387 -0.2226
 8533PW      WP30534   2.694   2.525   4.455  0.4418  0.1412  0.1186
 8533PW      WM30535   2.485   2.433   4.369 -0.2183 -0.2783  0.2084
 8534PW       W30536   1.217   8.185  12.305 -0.2691  0.0410  0.1332
 8534PW      WP30537   1.186   8.080  12.218  0.2238  0.0627 -0.0860
 8534PW      WM30538   1.146   8.285  12.373  0.3429  0.1779  0.6118
 8535PW       W30539  12.066   6.760   4.780  0.3957  0.0276 -0.1759
 8535PW      WP30540  12.108   6.736   4.911  0.4932 -0.0782 -0.2261
 8535PW      WM30541  12.164   6.670   4.738  0.0647 -0.3181 -0.2381
 8536PW       W30542   5.611   0.476  10.504 -0.0993  0.0383 -0.1630
 8536PW      WP30543   5.732   0.467  10.435 -0.0429  0.1741 -0.0842
 8536PW      WM30544   5.675   0.571  10.585  0.1663 -0.1796 -0.1115
 8537PW       W30545   5.194   9.318  11.667 -0.1465  0.2912  0.1885
 8537PW      WP30546   5.080   9.279  11.739 -0.3325  0.1558 -0.1631
 8537PW      WM30547   5.251   9.419  11.589  0.1642 -0.6308 -0.9138
 8538PW       W30548   4.273   4.696  11.856  0.1943  0.6592  0.2545
 8538PW      WP30549   4.230   4.593  11.940  0.3022  0.2998 -0.1122
 8538PW      WM30550   4.408   4.666  11.831 -0.0519 -0.1493 -0.2891
 8539PW       W30551   6.856   7.916   1.695 -0.1655  0.2500  0.0493
 8539PW      WP30552   6.973   7.918   1.772  0.0010 -0.1304 -0.1828
 8539PW      WM30553   6.862   7.858   1.568 -0.5176 -0.0198  0.1474
 8540PW       W30554  10.776   6.966   3.618 -0.3316 -0.1126 -0.0311
 8540PW      WP30555  10.726   7.002   3.744 -0.2960  0.9123 -0.2598
 8540PW      WM30556  10.707   7.042   3.523 -0.2430  0.0973  0.0691
 8541PW       W30557   5.907   8.029  11.761 -0.2606 -0.2864 -0.1071
 8541PW      WP30558   5.944   7.927  11.673 -0.0169 -0.1733 -0.1396
 8541PW      WM30559   5.849   7.948  11.859  0.0820  0.0866  0.4339
 8542PW       W30560   1.552   2.477   9.287 -0.4113 -0.0393  0.1314
 8542PW      WP30561   1.643   2.373   9.308  0.3041  0.4930 -0.1316
 8542PW      WM30562   1.639   2.584   9.261  0.2564 -0.5760  0.0128
 8543PW       W30563   6.561   3.751   2.707  0.2211  0.0648  0.0278
 8543PW      WP30564   6.505   3.633   2.657 -0.0306  0.2075 -0.0375
 8543PW      WM30565   6.479   3.840   2.636 -0.3936 -0.3818  0.1359
 8544PW       W30566   7.769   5.161   8.954  0.2310 -0.3692 -0.0310
 8544PW      WP30567   7.668   5.174   8.858  0.0658  0.0325  0.1818
 8544PW      WM30568   7.666   5.141   9.047  0.2839 -0.2921  0.0447
 8545PW       W30569   5.458  11.575   1.037 -0.1595  0.1537  0.3838
 8545PW      WP30570   5.409  11.656   1.140  0.5984  0.3726  0.5996
 8545PW      WM30571   5.322  11.583   1.003 -0.2504  0.1337  0.7258
 8546PW       W30572   1.017   2.128   1.499  0.1708  0.4346 -0.0790
 8546PW      WP30573   1.099   2.161   1.391  0.0872  0.5721 -0.1028
 8546PW      WM30574   1.023   1.997   1.547  0.2546  0.3746 -0.2501
 8547PW       W30575   2.332   4.773   1.456  0.1211 -0.2536  0.1377
 8547PW      WP30576   2.371   4.842   1.341 -0.0762  0.1459  0.2995
 8547PW      WM30577   2.412   4.742   1.566 -0.2259  0.0011  0.4805
 8548PW       W30578  11.673   4.952   1.430 -0.2624  0.0279 -0.2280
 8548PW      WP30579  11.691   4.813   1.428  0.2820  0.0800  0.0733
 8548PW      WM30580  11.548   4.941   1.493 -0.4602  0.0726 -0.5979
 8549PW       W30581   6.813   5.287  11.782  0.1182 -0.1959  0.0364
 8549PW      WP30582   6.814   5.409  11.849  0.3785 -0.1774  0.0031
 8549PW      WM30583   6.858   5.159  11.744  0.1677 -0.2276  0.1984
 8550PW       W30584  11.008  11.070   2.099 -0.2243 -0.2692 -0.3191
 8550PW      WP30585  10.892  10.998   2.131 -0.4006 -0.1119 -0.5874
 8550PW      WM30586  11.002  11.017   2.229 -0.0319  0.9237  0.2421
 8551PW       W30587  11.743  11.901  12.514 -0.3459 -0.0389  0.0251
 8551PW      WP30588  11.867  11.883  12.452 -0.2265 -0.3154  0.3278
 8551PW      WM30589  11.717  11.770  12.556  0.4122 -0.3508 -0.3757
 8552PW       W30590  11.640   6.409   4.315  0.2536  0.0667  0.0715
 8552PW      WP30591  11.761   6.478   4.301  0.2901 -0.0758 -0.4395
 8552PW      WM30592  11.593   6.381   4.444  0.5862 -0.4621  0.0946
 8553PW       W30593   1.294   1.206   3.899 -0.3061 -0.1659 -0.2553
 8553PW      WP30594   1.403   1.293   3.887 -0.0351 -0.5467 -0.7497
 8553PW      WM30595   1.285   1.345   3.889  0.0979 -0.1077  0.0502
 8554PW       W30596   7.779   2.978  10.236  0.1411 -0.2777  0.1970
 8554PW      WP30597   7.804   3.095  10.163 -0.1796 -0.1923  0.2119
 8554PW      WM30598   7.695   2.992  10.348 -0.0929 -0.0052 -0.0043
 8555PW       W30599  12.051   7.203   1.850 -0.1304 -0.2661 -0.0981
 8555PW      WP30600  11.941   7.172   1.769 -0.4790  0.3659  0.0998
 8555PW      WM30601  12.123   7.125   1.759 -0.5008 -0.6629 -0.0646
 8556PW       W30602   1.072   7.218  12.512 -0.2044  0.2499 -0.0598
 8556PW      WP30603   0.956   7.212  12.591 -0.4132  0.1074 -0.3693
 8556PW      WM30604   0.948   7.152  12.510  0.1677 -0.5026 -0.0183
 8557PW       W30605  12.019   4.279   3.204  0.0481 -0.0762  0.3293
 8557PW      WP30606  11.935   4.387   3.172  0.4599  0.2391  0.2595
 8557PW      WM30607  12.148   4.293   3.257  0.1707  0.1691 -0.0113
 8558PW       W30608   8.552   2.334   8.236  0.1575  0.0617  0.3045
 8558PW      WP30609   8.638   2.422   8.303  0.3930  0.1016 -0.0382
 8558PW      WM30610   8.554   2.197   8.263 -0.2614 -0.0060  0.0268
 8559PW       W30611   4.319  11.083  10.192 -0.1408  0.1620 -0.3885
 8559PW      WP30612   4.328  11.195  10.276  0.3633  0.1550 -0.4193
 8559PW      WM30613   4.294  10.956  10.245 -0.2775  0.1894 -0.3857
 8560PW       W30614   7.649   0.761   0.177  0.0037 -0.2669  0.2138
 8560PW      WP30615   7.773   0.766   0.113  0.1116  0.4982  0.4318
 8560PW      WM30616   7.679   0.632   0.223 -0.2511 -0.3424  0.1750
 8561PW       W30617   3.809   7.182   9.216 -0.0716 -0.2562 -0.1679
 8561PW      WP30618   3.767   7.270   9.116  0.0563  0.3120  0.2569
 8561PW      WM30619   3.708   7.128   9.297 -0.0027  0.0936  0.1642
 8562PW       W30620   3.145   4.215  11.227  0.1138  0.3436  0.5314
 8562PW      WP30621   3.261   4.158  11.174 -0.4254 -0.3612  0.0096
 8562PW      WM30622   3.187   4.200  11.360  0.1891 -0.2097  0.4552
 8563PW       W30623  10.041   1.903   2.198  0.1318  0.2476 -0.2304
 8563PW      WP30624   9.955   1.796   2.226  0.5829 -0.1147 -0.1653
 8563PW      WM30625  10.138   1.872   2.102  0.2376 -0.0443 -0.0384
 8564PW       W30626  11.239   5.182   1.276  0.1997  0.1899 -0.1028
 8564PW      WP30627  11.167   5.099   1.190  0.3858  0.0677 -0.1448
 8564PW      WM30628  11.233   5.246   1.151 -0.5447  0.2352 -0.0637
 8565PW       W30629   1.904  10.110  12.911 -0.0114  0.1670 -0.1572
 8565PW      WP30630   1.785  10.162  12.859 -0.1103 -0.1151 -0.2182
 8565PW      WM30631   1.944  10.058  12.787 -0.2238 -0.3359 -0.0241
 8566PW       W30632   9.049   9.091   0.661 -0.2570  0.2961  0.2211
 8566PW      WP30633   9.101   9.201   0.591 -0.3673  0.1651 -0.0782
 8566PW      WM30634   9.157   9.010   0.624 -0.2184  0.3735  0.1620
 8567PW       W30635   4.479   2.397   3.058  0.1489 -0.0568 -0.1654
 8567PW      WP30636   4.373   2.354   3.139  0.0602  0.5461  0.0589
 8567PW      WM30637   4.557   2.513   3.066  0.0572 -0.0166  0.2498
 8568PW       W30638   6.620  11.165   4.004 -0.2814  0.0386  0.1119
 8568PW      WP30639   6.743  11.210   4.055  0.1066 -0.4586 -0.3223
 8568PW      WM30640   6.573  11.296   4.015  0.2460  0.2615 -0.0854
 8569PW       W30641  10.050   6.071  11.112 -0.0712  0.1871 -0.3358
 8569PW      WP30642   9.940   6.052  11.027  0.0332 -0.1017 -0.4129
 8569PW      WM30643  10.182   6.114  11.092  0.0360  0.0608  0.0633
 8570PW       W30644   6.696   0.113   1.329 -0.0369 -0.0990 -0.1652
 8570PW      WP30645   6.719   0.251   1.328  0.2189 -0.1381 -0.1605
 8570PW      WM30646   6.611   0.094   1.438  0.0184  0.0713 -0.0908
 8571PW       W30647   4.582  10.748  12.939  0.4455  0.1595  0.2713
 8571PW      WP30648   4.503  10.760  13.054 -0.0654 -0.4869  0.0250
 8571PW      WM30649   4.598  10.806  12.813 -0.1428  0.4511  0.3142
 8572PW       W30650   6.489   3.461   4.309  0.0615  0.1342 -0.1032
 8572PW      WP30651   6.394   3.485   4.209  0.3051 -0.1698 -0.4201
 8572PW      WM30652   6.426   3.581   4.344 -0.1640 -0.0179  0.0259
 8573PW       W30653   9.211  11.386  11.897 -0.4688 -0.0322 -0.0508
 8573PW      WP30654   9.213  11.432  11.765 -0.1600  0.3756  0.0853
 8573PW      WM30655   9.140  11.422  12.013 -0.3238  0.1869 -0.0273
 8574PW       W30656   8.886   3.301   2.982  0.0946  0.3466  0.5203
 8574PW      WP30657   8.956   3.219   3.072  0.4716  0.3781  0.2668
 8574PW      WM30658   8.920   3.437   2.979  0.3637  0.2794  0.0497
 8575PW       W30659   1.015   5.252   3.515  0.0706  0.0187 -0.1513
 8575PW      WP30660   1.015   5.274   3.653  0.1749 -0.5397 -0.0535
 8575PW      WM30661   1.122   5.322   3.457 -0.0677  0.6769  0.3313
 8576PW       W30662   9.264   8.728   3.715 -0.3488 -0.0370 -0.1767
 8576PW      WP30663   9.392   8.680   3.688 -0.1150  0.2480  0.3533
 8576PW      WM30664   9.194   8.626   3.781  0.1104 -0.1753  0.1250
 8577PW       W30665  11.677   8.983   0.139  0.0665  0.0362 -0.0150
 8577PW      WP30666  11.580   8.987   0.240  0.1814 -0.2122  0.1101
 8577PW      WM30667  11.750   8.866   0.111 -0.1377 -0.2045  0.4033
 8578PW       W30668   8.141   5.550   2.055  0.2592 -0.1587  0.1001
 8578PW      WP30669   8.048   5.644   2.103  0.5006  0.0442  0.1831
 8578PW      WM30670   8.155   5.550   1.916  0.5302  0.7563  0.0925
 8579PW       W30671   9.991   2.736   3.351  0.2526  0.0097 -0.0214
 8579PW      WP30672  10.083   2.660   3.423  0.2558 -0.0589 -0.0963
 8579PW      WM30673  10.091   2.651   3.303  0.8348  0.7417 -0.1967
 8580PW       W30674   7.507   0.601   9.270  0.1405  0.2948  0.2977
 8580PW      WP30675   7.543   0.641   9.399  0.1441  0.0346  0.3805
 8580PW      WM30676   7.421   0.589   9.160 -0.2004  0.0136  0.5818
 8581PW       W30677   8.458   4.232   5.212 -0.2813  0.2888 -0.0896
 8581PW      WP30678   8.526   4.126   5.273 -0.5783  0.1421 -0.0039
 8581PW      WM30679   8.423   4.356   5.157 -0.0670  0.3244 -0.1505
 8582PW       W30680  12.043   9.704  10.057  0.1711  0.2423 -0.2761
 8582PW      WP30681  11.929   9.764  10.111  0.3783  0.1657  0.2824
 8582PW      WM30682  12.076   9.825   9.996  0.0264  0.3346 -0.1735
 8583PW       W30683   8.770   8.950   1.067 -0.1870  0.2954 -0.0943
 8583PW      WP30684   8.874   8.983   0.979 -0.1275  0.0163 -0.1347
 8583PW      WM30685   8.699   9.069   1.082 -0.1904  0.3060 -0.1963
 8584PW       W30686   0.728  10.277  12.615  0.5373 -0.3473  0.0137
 8584PW      WP30687   0.818  10.322  12.518  0.1876  0.1803 -0.0900
 8584PW      WM30688   0.775  10.278  12.747  0.1535  0.5458  0.1791
 8585PW       W30689  10.905   1.509   1.320 -0.2570  0.0014 -0.2232
 8585PW      WP30690  10.807   1.605   1.347 -0.2636 -0.1798  0.5233
 8585PW      WM30691  10.831   1.401   1.371  0.1388 -0.2357 -0.1244
 8586PW       W30692   8.390  10.375   2.822  0.0186 -0.5161 -0.5037
 8586PW      WP30693   8.511  10.426   2.870 -0.4587 -0.0312  0.2993
 8586PW      WM30694   8.447  10.252   2.787  0.1784 -0.6663  0.1998
 8587PW       W30695   5.031   1.752   4.180  0.2480  0.1675 -0.2092
 8587PW      WP30696   5.108   1.761   4.296  0.1877  0.2883 -0.1777
 8587PW      WM30697   5.092   1.647   4.110 -0.6588 -0.3025 -0.3680
 8588PW       W30698   7.929   4.294  12.776  0.4679  0.1514  0.0884
 8588PW      WP30699   7.809   4.366  12.778  0.1694 -0.2870 -0.4827
 8588PW      WM30700   8.049   4.222  12.785  0.3256 -0.1255 -0.1438
 8589PW       W30701   3.097   6.910  10.899  0.0516 -0.1679  0.3198
 8589PW      WP30702   3.225   6.869  10.936  0.0896  0.1140  0.5182
 8589PW      WM30703   3.071   6.801  10.816 -0.1543  0.2397 -0.1760
 8590PW       W30704   8.776   0.960   9.155 -0.0394 -0.3680  0.3981
 8590PW      WP30705   8.867   0.884   9.081 -0.1032  0.0650 -0.1538
 8590PW      WM30706   8.813   1.080   9.094  0.3606 -0.5850  0.1997
 8591PW       W30707   1.574   5.319   3.600 -0.5125  0.1490  0.0418
 8591PW      WP30708   1.522   5.191   3.624 -0.0693  0.0241  0.3943
 8591PW      WM30709   1.706   5.329   3.553 -0.4609 -0.0984  0.1278
 8592PW       W30710   4.707   6.964   8.758 -0.3305 -0.1782 -0.3629
 8592PW      WP30711   4.722   7.101   8.780  0.3072 -0.2101 -0.5009
 8592PW      WM30712   4.709   7.039   8.640 -0.4203  0.0468 -0.2233
 8593PW       W30713   5.804  11.360   1.246 -0.3246  0.0453  0.1536
 8593PW      WP30714   5.776  11.277   1.137 -0.1993  0.4199 -0.1750
 8593PW      WM30715   5.860  11.486   1.224 -0.1253 -0.0653  0.0216
 8594PW       W30716   3.457  10.782   3.769 -0.4240  0.3124  0.0536
 8594PW      WP30717   3.524  10.895   3.819 -0.5936  0.4145  0.0556
 8594PW      WM30718   3.424  10.678   3.682  0.2532  0.2714 -0.1840
 8595PW       W30719   2.373   9.826  10.405 -0.4021  0.1564 -0.2852
 8595PW      WP30720   2.382   9.722  10.311  0.1568 -0.1395  0.0625
 8595PW      WM30721   2.244   9.772  10.398 -0.3472  0.0165 -0.2522
 8596PW       W30722   4.347   5.535   2.906  0.2758 -0.1420  0.3226
 8596PW      WP30723   4.399   5.449   2.807 -0.1942  0.3292 -0.3823
 8596PW      WM30724   4.359   5.596   3.031  0.1885  0.0528  0.2386
 8597PW       W30725   0.032   1.759   8.560  0.0670 -0.1341 -0.0508
 8597PW      WP30726   0.065   1.628   8.595 -0.3251 -0.1289  0.3920
 8597PW      WM30727  -0.067   1.838   8.501 -0.0458 -0.0649  0.2232
 8598PW       W30728  10.361   9.716   2.311 -0.1593 -0.1316 -0.0463
 8598PW      WP30729  10.489   9.670   2.280 -0.2307  0.0373 -0.6493
 8598PW      WM30730  10.351   9.589   2.368  0.2858 -0.3175 -0.3581
 8599PW       W30731   2.239   8.660  10.902  0.1244  0.6318  0.0200
 8599PW      WP30732   2.150   8.554  10.925  0.1163  0.7314  0.5016
 8599PW      WM30733   2.374   8.670  10.866  0.1711 -0.2041 -0.1385
 8600PW       W30734   0.495  10.785   3.360 -0.6988  0.3315  0.3638
 8600PW      WP30735   0.547  10.883   3.446 -0.0942  0.0591  0.3303
 8600PW      WM30736   0.578  10.882   3.302 -0.4110 -0.2623 -0.2842
 8601PW       W30737   0.445   7.005   9.698 -0.4245 -0.1338  0.0789
 8601PW      WP30738   0.531   7.013   9.808 -0.0933 -0.0857 -0.1765
 8601PW      WM30739   0.550   7.095   9.683 -0.5106 -0.0425  0.0109
 8602PW       W30740   8.676   3.108   9.327 -0.0693  0.1768 -0.1774
 8602PW      WP30741   8.782   3.159   9.403 -0.2814 -0.0475  0.2892
 8602PW      WM30742   8.569   3.190   9.291 -0.2574 -0.0853 -0.2320
 8603PW       W30743   6.118   8.521   2.840  0.3507  0.1011  0.0807
 8603PW      WP30744   6.175   8.629   2.910 -0.0562 -0.0785  0.7329
 8603PW      WM30745   6.071   8.413   2.916 -0.1356  0.1756 -0.0985
 8604PW       W30746   6.766   7.143   4.301 -0.2106 -0.1898 -0.2431
 8604PW      WP30747   6.852   7.128   4.192 -0.3895  0.1153 -0.4352
 8604PW      WM30748   6.664   7.049   4.310 -0.0381 -0.3422  0.3393
 8605PW       W30749   0.756   5.449   8.884  0.2529 -0.2514 -0.3950
 8605PW      WP30750   0.669   5.388   8.792 -0.3781 -0.2629  0.1687
 8605PW      WM30751   0.788   5.526   8.996  0.0083 -0.5799 -0.0856
 8606PW       W30752   6.043   9.418  11.425  0.1488  0.1510  0.3450
 8606PW      WP30753   6.079   9.463  11.297  0.1097 -0.3044  0.1640
 8606PW      WM30754   5.956   9.444  11.318 -0.0406  0.2664  0.5238
 8607PW       W30755  10.551  11.409   9.664 -0.4591 -0.3026  0.4124
 8607PW      WP30756  10.684  11.450   9.674 -0.4189 -0.1998 -0.2651
 8607PW      WM30757  10.458  11.497   9.608 -0.0176 -0.2790 -0.3622
 8608PW       W30758   5.303   0.729   1.132  0.0074 -0.1794 -0.2587
 8608PW      WP30759   5.383   0.760   1.243 -0.5183  0.2212  0.0272
 8608PW      WM30760   5.440   0.715   1.105  0.0741 -0.0077 -0.0334
 8609PW       W30761   6.742  10.384   9.956  0.0486  0.0125  0.0188
 8609PW      WP30762   6.852  10.438   9.887  0.4454 -0.7078  0.0382
 8609PW      WM30763   6.612  10.405   9.907  0.2112  0.0893 -0.4029
 8610PW       W30764  11.658   2.621   3.089 -0.5374 -0.5764 -0.2432
 8610PW      WP30765  11.550   2.709   3.092 -0.1377 -0.0602 -0.0568
 8610PW      WM30766  11.717   2.556   2.980 -0.7175  0.0597 -0.7428
 8611PW       W30767   2.468  10.273   1.742 -0.0112 -0.2389 -0.1462
 8611PW      WP30768   2.480  10.385   1.825  0.1844 -0.3370 -0.0375
 8611PW      WM30769   2.432  10.180   1.839  0.0455 -0.0496  0.0606
 8612PW       W30770   5.258   8.360   3.776  0.2525 -0.0591 -0.0873
 8612PW      WP30771   5.261   8.221   3.785 -0.3458 -0.1004 -0.3000
 8612PW      WM30772   5.168   8.465   3.754  0.5210  0.2108  0.0540
 8613PW       W30773   6.650   5.153   4.478  0.0931 -0.1789 -0.4839
 8613PW      WP30774   6.742   5.255   4.451 -0.2222  0.1496 -0.3577
 8613PW      WM30775   6.527   5.198   4.528  0.0336 -0.2370 -0.5778
 8614PW       W30776   4.542   5.935  11.488  0.2207 -0.2590 -0.0117
 8614PW      WP30777   4.435   5.855  11.529 -0.0683  0.2783  0.3484
 8614PW      WM30778   4.593   5.826  11.560  0.1882 -0.2229  0.0668
 8615PW       W30779   9.919   3.201   0.567  0.4835 -0.0497  0.0289
 8615PW      WP30780   9.926   3.117   0.679 -0.7456 -0.3365 -0.0348
 8615PW      WM30781   9.839   3.303   0.620  0.0617 -0.3995  0.0984
 8616PW       W30782   5.584   5.292   5.090 -0.2402 -0.2933  0.4472
 8616PW      WP30783   5.617   5.212   4.980 -0.4209 -0.0184  0.1851
 8616PW      WM30784   5.458   5.332   5.043  0.1764  0.1954 -0.3646
 8617PW       W30785   0.103  10.825  10.676  0.3319 -0.0720  0.2216
 8617PW      WP30786   0.242  10.804  10.671  0.3280 -0.1048  0.2524
 8617PW      WM30787   0.016  10.882  10.769  0.1987  0.4682 -0.2077
 8618PW       W30788   5.817   7.052   1.905  0.1624  0.0716 -0.1517
 8618PW      WP30789   5.722   7.050   2.009  0.0250  0.0210 -0.2756
 8618PW      WM30790   5.949   7.022   1.938  0.2189  0.4345 -0.0249
 8619PW       W30791   5.786   8.050   8.713  0.0360 -0.1721 -0.3724
 8619PW      WP30792   5.696   8.132   8.644  0.2927  0.1952 -0.2871
 8619PW      WM30793   5.905   8.083   8.647  0.2273  0.0292  0.0493
 8620PW       W30794   4.444  11.973  13.081  0.3407  0.1676 -0.1108
 8620PW      WP30795   4.427  11.988  12.942 -0.2861  0.6991 -0.0036
 8620PW      WM30796   4.408  12.061  13.183 -0.6625  0.1754 -0.4159
 8621PW       W30797   7.914   2.777   8.954 -0.1599 -0.3786  0.3379
 8621PW      WP30798   7.933   2.642   8.921  0.0785 -0.2513 -0.0761
 8621PW      WM30799   7.862   2.726   8.835 -0.1016  0.2395  0.0293
 8622PW       W30800   0.753  11.054   4.264 -0.3746 -0.2823 -0.0953
 8622PW      WP30801   0.683  11.143   4.180  0.2713  0.2437 -0.1181
 8622PW      WM30802   0.779  11.051   4.126 -0.2885  0.0166 -0.0904
 8623PW       W30803   8.029   1.673   2.790  0.0815 -0.2268  0.3152
 8623PW      WP30804   8.125   1.774   2.775  0.0222 -0.2040  0.0571
 8623PW      WM30805   7.945   1.733   2.884 -0.5782  0.0711 -0.4015
 8624PW       W30806   8.195   2.594   3.737  0.1241  0.1445 -0.3784
 8624PW      WP30807   8.275   2.571   3.850 -0.2577 -0.5849 -0.2243
 8624PW      WM30808   8.067   2.551   3.701 -0.2376  0.4147  0.4678
 8625PW       W30809  11.385   0.816   8.735  0.2055 -0.2158 -0.3186
 8625PW      WP30810  11.410   0.915   8.639 -0.5536  0.2282 -0.0952
 8625PW      WM30811  11.255   0.826   8.686 -0.0146 -0.3373  0.2067
 8626PW       W30812   4.616   9.432   5.643  0.1526  0.0989 -0.0112
 8626PW      WP30813   4.660   9.514   5.747  0.0636 -0.1713  0.2442
 8626PW      WM30814   4.748   9.471   5.673  0.1225 -0.0605  0.3497
 8627PW       W30815  10.276   5.092  11.182  0.3665  0.0726  0.2923
 8627PW      WP30816  10.300   5.197  11.093  0.2780 -0.1529 -0.0054
 8627PW      WM30817  10.167   5.170  11.224  0.0565  0.0247 -0.3487
 8628PW       W30818   1.328   4.754  11.752  0.1425  0.3491 -0.2554
 8628PW      WP30819   1.339   4.756  11.891 -0.0159  0.4182 -0.2432
 8628PW      WM30820   1.266   4.660  11.834 -0.2190  0.2630 -0.6118
 8629PW       W30821  10.662   1.138  13.314  0.3942 -0.0960  0.3220
 8629PW      WP30822  10.528   1.153  13.351  0.1935  0.4494 -0.4810
 8629PW      WM30823  10.632   1.028  13.233  0.4760  0.1394 -0.0395
 8630PW       W30824   5.563   9.662  11.870 -0.1271 -0.4075  0.1519
 8630PW      WP30825   5.470   9.694  11.770  0.0838  0.9307  0.2857
 8630PW      WM30826   5.570   9.524  11.886  0.5424 -0.4127 -0.0373
 8631PW       W30827   7.784   3.588   2.850 -0.6176 -0.0684 -0.0022
 8631PW      WP30828   7.818   3.488   2.759  0.0163 -0.2545  0.4037
 8631PW      WM30829   7.777   3.692   2.944 -0.5338  0.2861 -0.3698
 8632PW       W30830  10.858   3.769   1.266 -0.0862  0.4434 -0.1313
 8632PW      WP30831  10.753   3.761   1.357 -0.1628  0.0130 -0.2456
 8632PW      WM30832  10.956   3.866   1.290 -0.1159  0.4448 -0.0158
 8633PW       W30833   9.411   4.908   0.858 -0.1330  0.0119  0.0698
 8633PW      WP30834   9.540   4.855   0.848  0.0610  0.4441  0.1736
 8633PW      WM30835   9.396   5.041   0.817  0.0257  0.0312  0.0737
 8634PW       W30836   0.361   1.523   9.807  0.0368  0.0023  0.1303
 8634PW      WP30837   0.382   1.637   9.885 -0.0128  0.1755 -0.1037
 8634PW      WM30838   0.384   1.391   9.849  0.0851 -0.1171 -0.2488
 8635PW       W30839   5.224   1.736   2.172 -0.3369 -0.1099  0.0559
 8635PW      WP30840   5.170   1.768   2.298 -0.3855  0.0577 -0.0054
 8635PW      WM30841   5.308   1.770   2.066 -0.5778 -0.1701 -0.1594
 8636PW       W30842   9.995   0.641  13.117  0.4114  0.2187  0.2055
 8636PW      WP30843  10.049   0.698  13.001  0.4283  0.3673  0.2846
 8636PW      WM30844   9.887   0.719  13.163  0.3925  0.4076 -0.1421
 8637PW       W30845   8.744   2.457  10.448  0.1439  0.0037  0.4083
 8637PW      WP30846   8.609   2.421  10.448  0.1748 -0.1670 -0.1500
 8637PW      WM30847   8.756   2.338  10.521 -0.0649 -0.1260  0.2384
 8638PW       W30848   4.060   8.946  11.214  0.4512  0.4227 -0.0167
 8638PW      WP30849   4.053   9.084  11.236  0.4018  0.4389 -0.1309
 8638PW      WM30850   4.177   8.900  11.276  0.2994 -0.2761 -0.2127
 8639PW       W30851   2.971   4.984   1.256  0.0182 -0.1926 -0.1629
 8639PW      WP30852   3.089   5.049   1.292  0.1431 -0.2682 -0.4270
 8639PW      WM30853   2.868   4.947   1.168 -0.0221 -0.6902  0.0721
 8640PW       W30854  11.739  12.007   1.481  0.2237 -0.0699  0.1380
 8640PW      WP30855  11.873  11.968   1.488  0.2622  0.0546  0.1030
 8640PW      WM30856  11.829  12.099   1.538 -0.1319  0.0387  0.5554
 8641PW       W30857   9.815  11.502   1.692 -0.3745 -0.0191  0.3050
 8641PW      WP30858   9.871  11.527   1.566  0.3812  0.0547  0.6296
 8641PW      WM30859   9.753  11.378   1.712 -0.1022 -0.1739  0.2133
 8642PW       W30860  11.173   1.030  11.651  0.0218  0.0487 -0.2945
 8642PW      WP30861  11.309   1.004  11.631  0.0694  0.2815 -0.2833
 8642PW      WM30862  11.109   1.129  11.727  0.0846 -0.1850  0.0721
 8643PW       W30863  12.040   6.187   9.467  0.0249 -0.0368 -0.1765
 8643PW      WP30864  11.987   6.311   9.429  0.0161 -0.0309 -0.1454
 8643PW      WM30865  12.150   6.268   9.495 -0.0586  0.0470 -0.0882
 8644PW       W30866   1.883   8.663  12.604  0.1251 -0.4854 -0.1596
 8644PW      WP30867   1.938   8.561  12.683  0.2132 -0.2148  0.1367
 8644PW      WM30868   1.897   8.802  12.615 -0.0835 -0.4622 -0.1621
 8645PW       W30869   6.441   9.192  13.062 -0.2697  0.0813 -0.1813
 8645PW      WP30870   6.402   9.302  13.139 -0.2226 -0.3422  0.4936
 8645PW      WM30871   6.577   9.157  13.069 -0.3644 -0.2326  0.3387
 8646PW       W30872   8.335   1.003   8.937  0.1745  0.0291 -0.6039
 8646PW      WP30873   8.211   0.950   8.900 -0.1065  0.5100 -0.3949
 8646PW      WM30874   8.230   1.033   9.025  0.1289  0.1271 -0.6910
 8647PW       W30875   4.427   0.209   4.110  0.4397  0.5059 -0.3482
 8647PW      WP30876   4.420   0.213   3.970  0.1692  0.4840 -0.3387
 8647PW      WM30877   4.405   0.292   4.220 -0.5463 -0.3881  0.2176
 8648PW       W30878   1.291  11.052  12.716 -0.3545 -0.1236  0.0312
 8648PW      WP30879   1.247  11.184  12.727 -0.2311 -0.0814  0.0240
 8648PW      WM30880   1.294  10.977  12.834 -0.1689 -0.3202 -0.0942
 8649PW       W30881   3.207   8.152   0.461 -0.3713  0.0196  0.0127
 8649PW      WP30882   3.119   8.046   0.484 -0.1212 -0.1001  0.4674
 8649PW      WM30883   3.281   8.206   0.355  0.4638 -0.0611  0.5091
 8650PW       W30884   6.807  12.071  13.137 -0.1749 -0.0123 -0.3213
 8650PW      WP30885   6.909  12.150  13.190 -0.2276  0.0864 -0.3666
 8650PW      WM30886   6.748  11.945  13.120 -0.4428 -0.0027  0.3679
 8651PW       W30887   7.369   5.807  11.169  0.3853  0.1453  0.1096
 8651PW      WP30888   7.450   5.867  11.266 -0.0090  0.3589  0.3235
 8651PW      WM30889   7.269   5.817  11.267  0.3239 -0.2267  0.0896
 8652PW       W30890   6.370   6.956  10.853  0.3326  0.2523 -0.1215
 8652PW      WP30891   6.320   6.954  10.722 -0.0549 -0.0812  0.0216
 8652PW      WM30892   6.283   6.919  10.956  0.0246  0.1903 -0.3950
 8653PW       W30893   6.265  10.058  12.496 -0.0819 -0.2649  0.0446
 8653PW      WP30894   6.144  10.099  12.552  0.0452 -0.2098  0.2856
 8653PW      WM30895   6.171   9.955  12.511  0.2205 -0.4846  0.5490
 8654PW       W30896   4.032   8.612   1.872  0.3549 -0.1429  0.0292
 8654PW      WP30897   4.013   8.725   1.953 -0.3128 -0.1557 -0.0754
 8654PW      WM30898   4.139   8.595   1.960  0.3857 -0.1159 -0.0027
 8655PW       W30899   1.718   0.556   5.178 -0.0334 -0.1469  0.1312
 8655PW      WP30900   1.663   0.543   5.050  0.1453  0.3051 -0.0037
 8655PW      WM30901   1.640   0.460   5.243 -0.3161 -0.0593 -0.0707
 8656PW       W30902   2.700   6.194   5.327 -0.3293  0.1285 -0.5134
 8656PW      WP30903   2.806   6.124   5.267 -0.2272 -0.3451  0.1536
 8656PW      WM30904   2.636   6.076   5.367 -0.0549  0.1393 -0.0011
 8657PW       W30905  10.871   8.174   3.298 -0.2314 -0.0143 -0.1929
 8657PW      WP30906  10.906   8.268   3.200 -0.6808  0.3448 -0.0279
 8657PW      WM30907  10.926   8.228   3.415  0.2174 -0.9354  0.0688
 8658PW       W30908   6.098   0.360  11.427  0.0302 -0.1858  0.2121
 8658PW      WP30909   5.983   0.281  11.443 -0.0720 -0.2091 -0.4910
 8658PW      WM30910   6.133   0.427  11.310 -0.1333  0.2170  0.3847
 8659PW       W30911   8.879   6.798  12.372 -0.0332 -0.4575 -0.3493
 8659PW      WP30912   8.963   6.737  12.278  0.2048 -0.4887 -0.1227
 8659PW      WM30913   8.920   6.931  12.359 -0.3383 -0.3056  0.1236
 8660PW       W30914   3.334   8.259  10.553 -0.0078  0.2261  0.2839
 8660PW      WP30915   3.439   8.170  10.530 -0.2237 -0.0472  0.3250
 8660PW      WM30916   3.299   8.124  10.539 -0.0005  0.2497  0.0197
 8661PW       W30917   9.195   2.950   1.341  0.0277  0.1711 -0.0741
 8661PW      WP30918   9.087   2.984   1.258 -0.5201 -0.0102  0.5171
 8661PW      WM30919   9.243   3.072   1.390  0.3475 -0.0309  0.1323
 8662PW       W30920   4.441   4.577   4.394  0.2308 -0.3178  0.1296
 8662PW      WP30921   4.336   4.566   4.302  0.2864  0.2174 -0.0180
 8662PW      WM30922   4.329   4.500   4.363  0.3290 -0.3112 -0.2703
 8663PW       W30923   7.780  10.580   1.989 -0.0922 -0.0357 -0.0684
 8663PW      WP30924   7.829  10.626   2.111 -0.3648  0.6829 -0.2087
 8663PW      WM30925   7.758  10.708   1.937  0.0617 -0.0163 -0.0883
 8664PW       W30926  11.542   3.309  12.878  0.5055 -0.2134  0.0968
 8664PW      WP30927  11.457   3.317  12.767 -0.3432 -0.1068  0.7027
 8664PW      WM30928  11.515   3.315  13.016 -0.0870 -0.0100 -0.0143
 8665PW       W30929   4.771   8.853   0.944  0.2336 -0.0309  0.2217
 8665PW      WP30930   4.764   8.973   0.872 -0.3736 -0.1610  0.0344
 8665PW      WM30931   4.782   8.745   0.856  0.1660  0.1245  0.0180
 8666PW       W30932   8.302   5.837  12.686  0.0143 -0.0353  0.2123
 8666PW      WP30933   8.329   5.915  12.573 -0.1863  0.0972  0.2544
 8666PW      WM30934   8.178   5.873  12.739  0.2128  0.3981  0.4064
 8667PW       W30935   5.887   9.275   0.020 -0.0898 -0.2989  0.2539
 8667PW      WP30936   5.917   9.405  -0.023  0.0460 -0.3541  0.1786
 8667PW      WM30937   5.988   9.366   0.057 -0.1662  0.2218 -0.6613
 8668PW       W30938   8.942   1.912   5.121 -0.0465 -0.2440 -0.3690
 8668PW      WP30939   8.806   1.883   5.104 -0.1260 -0.1831  0.0924
 8668PW      WM30940   9.047   1.848   5.188  0.1727  0.0273 -0.4422
 8669PW       W30941   4.426   0.948  12.446 -0.3042  0.3155 -0.0284
 8669PW      WP30942   4.488   0.999  12.331 -0.0375  0.0397 -0.0126
 8669PW      WM30943   4.343   0.842  12.485  0.0885  0.0341  0.0722
 8670PW       W30944  11.718   9.881  11.387 -0.2515 -0.3645  0.0865
 8670PW      WP30945  11.795   9.803  11.300 -0.0920  0.0758 -0.1768
 8670PW      WM30946  11.599   9.898  11.316 -0.0203 -0.5418 -0.3580
 8671PW       W30947   0.228   2.777  11.204  0.1842 -0.2661  0.2005
 8671PW      WP30948   0.238   2.742  11.339  0.0171 -0.0755  0.2648
 8671PW      WM30949   0.312   2.680  11.147 -0.0082 -0.2325 -0.1526
 8672PW       W30950  11.443   9.095   1.314  0.1620  0.2411  0.4438
 8672PW      WP30951  11.304   9.096   1.294  0.1232  0.6454  0.6751
 8672PW      WM30952  11.441   9.234   1.324 -0.2734  0.2656  0.1442
 8673PW       W30953   9.475   3.984   3.208 -0.1039  0.1233  0.4308
 8673PW      WP30954   9.425   4.100   3.148  0.1952  0.1569  0.2307
 8673PW      WM30955   9.503   3.884   3.114 -0.0246  0.0516  0.5302
 8674PW       W30956   7.612   0.588   0.669 -0.0721 -0.5287 -0.0931
 8674PW      WP30957   7.723   0.673   0.674 -0.4440  0.0206 -0.5466
 8674PW      WM30958   7.573   0.526   0.550  0.0646 -0.1842 -0.3238
 8675PW       W30959   0.993   2.464  12.157 -0.0134  0.1684  0.3574
 8675PW      WP30960   0.902   2.501  12.058  0.1950 -0.3054 -0.0319
 8675PW      WM30961   1.121   2.512  12.190  0.1561 -0.4888  0.7682
 8676PW       W30962   3.513   3.376  12.800 -0.3286 -0.0695 -0.1683
 8676PW      WP30963   3.563   3.356  12.671 -0.1813 -0.0448 -0.1148
 8676PW      WM30964   3.413   3.456  12.743 -0.2217  0.1762 -0.0166
 8677PW       W30965  10.494  10.803  12.408 -0.2329  0.1866  0.0409
 8677PW      WP30966  10.444  10.803  12.277  0.3849 -0.3724 -0.2234
 8677PW      WM30967  10.519  10.667  12.431 -0.1515  0.2442  0.3104
 8678PW       W30968   0.001   4.982   9.408  0.0217 -0.4427 -0.0016
 8678PW      WP30969   0.130   4.967   9.356 -0.0382 -0.3711 -0.1755
 8678PW      WM30970  -0.057   4.989   9.280 -0.0601 -0.2182  0.0462
 8679PW       W30971   2.988   0.896   1.890 -0.4504 -0.6243 -0.1517
 8679PW      WP30972   3.012   0.782   1.968  0.0957 -0.4749 -0.0805
 8679PW      WM30973   3.062   0.886   1.772 -0.6682 -0.3854 -0.3173
 8680PW       W30974   7.815  11.521   4.443  0.2082  0.0825 -0.3293
 8680PW      WP30975   7.692  11.566   4.494  0.1274 -0.2977 -0.1697
 8680PW      WM30976   7.945  11.500   4.488  0.0444 -0.0361  0.1166
 8681PW       W30977   5.891   4.689   4.099 -0.0339 -0.0280  0.3443
 8681PW      WP30978   5.899   4.779   4.206  0.3265  0.1203  0.2009
 8681PW      WM30979   6.014   4.623   4.112 -0.1075 -0.2370  0.0252
 8682PW       W30980   6.402   4.009  11.347  0.4020 -0.0394 -0.0588
 8682PW      WP30981   6.290   4.030  11.265  0.3114  0.2213  0.1240
 8682PW      WM30982   6.420   4.082  11.465  0.0091  0.2639 -0.1755
 8683PW       W30983   9.009   7.575  13.017  0.1043  0.1092 -0.0057
 8683PW      WP30984   8.927   7.688  13.009  0.0804  0.0993  0.0940
 8683PW      WM30985   9.113   7.639  13.086  0.0526  0.2841 -0.0867
 8684PW       W30986   7.502   6.153  12.953  0.2460  0.1854 -0.3629
 8684PW      WP30987   7.548   6.025  12.984  0.0742  0.0876 -0.4970
 8684PW      WM30988   7.453   6.143  12.822  0.1774 -0.3933 -0.3038
 8685PW       W30989   1.363   6.357  12.173 -0.1423  0.4667 -0.1642
 8685PW      WP30990   1.433   6.341  12.053 -0.0046 -0.0279 -0.0285
 8685PW      WM30991   1.375   6.494  12.201  0.1021  0.4296 -0.0792
 8686PW       W30992   5.259   3.122   8.507 -0.3649  0.2067  0.2237
 8686PW      WP30993   5.150   3.039   8.478  0.1613 -0.2907 -0.5210
 8686PW      WM30994   5.260   3.245   8.573  0.0939  0.3754 -0.0719
 8687PW       W30995   3.525   5.658   3.105 -0.3770  0.4489  0.3565
 8687PW      WP30996   3.604   5.598   3.204  0.0639 -0.0504 -0.2571
 8687PW      WM30997   3.591   5.775   3.067  0.6643 -0.2644 -0.2994
 8688PW       W30998   6.823   9.365  12.617  0.1708 -0.2091 -0.3386
 8688PW      WP30999   6.684   9.380  12.611  0.1224 -0.6689 -0.5135
 8688PW      WM31000   6.863   9.366  12.483  0.4191 -0.0464 -0.2660
 8689PW       W31001   3.904   3.761   2.081 -0.5058  0.0693 -0.3139
 8689PW      WP31002   3.864   3.647   2.152  0.4884 -0.1456 -0.0066
 8689PW      WM31003   3.855   3.882   2.132 -0.1528  0.0223  0.1814
 8690PW       W31004  11.276   3.378  10.831 -0.1844  0.0546  0.3311
 8690PW      WP31005  11.162   3.442  10.881 -0.2926 -0.1062  0.2921
 8690PW      WM31006  11.323   3.277  10.915  0.5794 -0.0578 -0.1796
 8691PW       W31007   8.282   3.353   9.205  0.4517 -0.5480 -0.3524
 8691PW      WP31008   8.412   3.338   9.254  0.3757 -0.1395  0.0079
 8691PW      WM31009   8.220   3.235   9.247  0.0572 -0.1912  0.1297
 8692PW       W31010   9.485   3.022  10.243 -0.2235  0.1595 -0.8263
 8692PW      WP31011   9.483   3.143  10.173 -0.0203  0.0831 -0.9708
 8692PW      WM31012   9.409   2.985  10.354  0.4148  0.1371 -0.3669
 8693PW       W31013   7.480   3.611  -0.006 -0.2937  0.0187  0.0427
 8693PW      WP31014   7.604   3.560   0.033 -0.4547  0.0147  0.5957
 8693PW      WM31015   7.392   3.720   0.007  0.0251  0.3154 -0.1909
 8694PW       W31016  12.010   0.776   9.328  0.1654 -0.3546  0.1755
 8694PW      WP31017  12.000   0.848   9.208  0.0134 -0.0955  0.3374
 8694PW      WM31018  11.997   0.641   9.359  0.2072 -0.3142  0.3761
 8695PW       W31019   9.946   2.439  10.012  0.2067 -0.3616 -0.1295
 8695PW      WP31020  10.028   2.338  10.065  0.1874 -0.0848  0.4667
 8695PW      WM31021   9.927   2.362  10.128  0.0839 -0.3619 -0.1493
 8696PW       W31022   5.598   7.120   4.242 -0.2181 -0.4639 -0.0078
 8696PW      WP31023   5.658   7.123   4.368  0.0863 -0.1010 -0.1522
 8696PW      WM31024   5.688   7.111   4.136 -0.3675 -0.1161 -0.1714
 8697PW       W31025   1.970   9.436  11.295  0.5512 -0.2779 -0.3091
 8697PW      WP31026   1.951   9.474  11.162  0.4749  0.2395 -0.1635
 8697PW      WM31027   2.064   9.539  11.313  0.0401  0.1057  0.4262
 8698PW       W31028   1.010   9.872   4.439  0.0681 -0.1751 -0.6196
 8698PW      WP31029   0.981   9.865   4.302 -0.4655  0.4254 -0.5595
 8698PW      WM31030   1.006  10.012   4.439  0.1367 -0.1661 -0.1381
 8699PW       W31031   5.820  12.009  12.644 -0.1969  0.3101  0.0202
 8699PW      WP31032   5.793  12.126  12.716  0.0552  0.0383  0.5925
 8699PW      WM31033   5.747  11.906  12.704 -0.1577  0.1746 -0.1607
 8700PW       W31034  11.988   1.540  11.924 -0.1419 -0.0808  0.2193
 8700PW      WP31035  12.090   1.575  11.835 -0.4391 -0.1936 -0.1837
 8700PW      WM31036  12.029   1.500  12.052 -0.5527 -0.4097  0.2587
 8701PW       W31037   6.253   6.679   2.105  0.3948  0.2704  0.1701
 8701PW      WP31038   6.381   6.660   2.051  0.1774  0.2750 -0.3767
 8701PW      WM31039   6.256   6.693   2.244  0.1558  0.3782  0.1665
 8702PW       W31040   9.672  10.036  11.328  0.2388  0.1632 -0.2967
 8702PW      WP31041   9.537  10.070  11.317  0.2086  0.0338 -0.3396
 8702PW      WM31042   9.624  10.000  11.455  0.0256 -0.3210 -0.5031
 8703PW       W31043   1.969   2.407   1.678  0.1222  0.1157  0.0617
 8703PW      WP31044   1.909   2.305   1.753  0.5685  0.0826  0.3890
 8703PW      WM31045   2.078   2.464   1.744  0.5189  0.0939 -0.5291
 8704PW       W31046   3.055   6.339   9.515  0.0551  0.1769  0.2314
 8704PW      WP31047   3.190   6.357   9.480  0.1803 -0.2140  0.4805
 8704PW      WM31048   3.086   6.202   9.512 -0.0972  0.1308  0.5472
 8705PW       W31049  10.626   8.762   8.820 -0.1206 -0.3159 -0.0023
 8705PW      WP31050  10.723   8.839   8.884 -0.3912 -0.2218  0.3105
 8705PW      WM31051  10.486   8.773   8.829 -0.0705  0.0341  0.6386
 8706PW       W31052   6.437   3.008  11.015 -0.1656  0.2012 -0.2523
 8706PW      WP31053   6.423   3.076  11.137 -0.3386 -0.0201 -0.1453
 8706PW      WM31054   6.356   2.964  11.120 -0.1828  0.5172 -0.1263
 8707PW       W31055   5.247   6.455   1.410  0.0397 -0.4811  0.0366
 8707PW      WP31056   5.230   6.454   1.271 -0.3926 -0.0898  0.0746
 8707PW      WM31057   5.206   6.569   1.481 -0.0193 -0.5232  0.0709
 8708PW       W31058   7.484   1.938   8.693 -0.1426 -0.5494  0.6578
 8708PW      WP31059   7.530   1.821   8.633 -0.2078 -0.2070 -0.1270
 8708PW      WM31060   7.608   1.909   8.751  0.4983 -0.1562 -0.3553
 8709PW       W31061   5.427   7.853   0.128 -0.0392  0.6234  0.4025
 8709PW      WP31062   5.399   7.895  -0.003 -0.1775  0.3071  0.3277
 8709PW      WM31063   5.304   7.903   0.172 -0.3778  0.1595  0.0293
 8710PW       W31064   8.729   2.937  13.079  0.0107  0.0153  0.1186
 8710PW      WP31065   8.662   3.039  13.146 -0.0811  0.0348 -0.0004
 8710PW      WM31066   8.670   2.875  12.968 -0.0996  0.2175  0.0626
 8711PW       W31067   2.078   7.962  13.161  0.2179  0.2690 -0.1131
 8711PW      WP31068   1.986   8.030  13.242 -0.0352 -0.5423  0.3391
 8711PW      WM31069   2.214   7.989  13.179  0.1044  0.4501  0.6148
 8712PW       W31070   5.870   7.144   3.872  0.3196 -0.0911 -0.3263
 8712PW      WP31071   5.810   7.212   3.979  0.8282  0.0423 -0.1091
 8712PW      WM31072   5.854   7.006   3.889 -0.0269 -0.0524 -0.3008
 8713PW       W31073   6.351   0.083  13.125 -0.1019  0.2516  0.5103
 8713PW      WP31074   6.225   0.028  13.153 -0.0451 -0.0849  0.1470
 8713PW      WM31075   6.374   0.221  13.137 -0.1563  0.3277 -0.1163
 8714PW       W31076   2.052   7.683  12.456  0.0430 -0.0486  0.0467
 8714PW      WP31077   1.994   7.615  12.564 -0.3460 -0.1780 -0.2313
 8714PW      WM31078   2.188   7.698  12.484  0.0163 -0.1529  0.2407
 8715PW       W31079   3.468   0.449  10.927 -0.2416 -0.3494 -0.0350
 8715PW      WP31080   3.594   0.447  10.987 -0.2630  0.3052  0.0697
 8715PW      WM31081   3.441   0.469  11.063 -0.2646  0.0592 -0.0931
 8716PW       W31082   4.835  11.294   3.584 -0.2714 -0.1695 -0.0939
 8716PW      WP31083   4.822  11.193   3.680  0.2813  0.0716  0.2597
 8716PW      WM31084   4.790  11.414   3.530 -0.1603 -0.1692 -0.1861
 8717PW       W31085   6.826   9.365  10.897 -0.0001  0.0590  0.0558
 8717PW      WP31086   6.711   9.445  10.901  0.1919  0.3863 -0.4484
 8717PW      WM31087   6.812   9.314  11.027  0.2680  0.0932  0.0991
 8718PW       W31088   5.005   1.349   0.284  0.2599  0.1125  0.0256
 8718PW      WP31089   4.932   1.445   0.213  0.1267 -0.1086 -0.1412
 8718PW      WM31090   5.047   1.225   0.235 -0.1243  0.0076 -0.0475
 8719PW       W31091   3.106  11.272  10.269 -0.2502 -0.2802  0.0515
 8719PW      WP31092   3.222  11.246  10.344  0.1573 -0.0086 -0.4538
 8719PW      WM31093   3.109  11.381  10.357  0.1611 -0.0267 -0.2576
 8720PW       W31094   8.083   0.214   8.729  0.0837 -0.0304 -0.0555
 8720PW      WP31095   8.146   0.207   8.604 -0.0966  0.2677 -0.1671
 8720PW      WM31096   8.116   0.124   8.832 -0.0753  0.1594  0.1654
 8721PW       W31097   6.570   5.592  11.363  0.0191 -0.2615  0.2524
 8721PW      WP31098   6.515   5.709  11.418  0.0604 -0.2368  0.2411
 8721PW      WM31099   6.636   5.481  11.308  0.1329 -0.1860  0.2347
 8722PW       W31100   4.271   5.666  10.329  0.5205 -0.0992  0.1667
 8722PW      WP31101   4.400   5.621  10.297  0.8141  0.3895  0.5775
 8722PW      WM31102   4.239   5.555  10.408  0.1553 -0.2290 -0.1499
 8723PW       W31103   8.788   5.224   2.939 -0.1217  0.0304  0.1487
 8723PW      WP31104   8.720   5.103   2.956 -0.0123 -0.0368  0.1214
 8723PW      WM31105   8.721   5.256   2.821  0.1733  0.4184  0.0755
 8724PW       W31106   7.454   4.743  13.123  0.0960 -0.4771 -0.0489
 8724PW      WP31107   7.559   4.749  13.215  0.4481  0.5458 -0.4396
 8724PW      WM31108   7.367   4.634  13.107  0.3347 -0.6569 -0.1551
 8725PW       W31109   8.076   0.895  11.485 -0.1371 -0.0881 -0.1417
 8725PW      WP31110   8.019   0.795  11.405 -0.1056 -0.3805  0.1909
 8725PW      WM31111   8.065   0.931  11.620  0.1559 -0.1419 -0.1002
 8726PW       W31112   4.702   0.219  10.007 -0.8255  0.1013  0.2357
 8726PW      WP31113   4.736   0.208  10.142  0.3311  0.0108 -0.0168
 8726PW      WM31114   4.662   0.288  10.122  0.0742  0.5275  0.3275
 8727PW       W31115   4.923   7.383   0.032  0.2422  0.0010 -0.4585
 8727PW      WP31116   5.016   7.278   0.031  0.2601  0.0137 -0.2787
 8727PW      WM31117   4.937   7.521   0.055 -0.2245 -0.0222  0.0431
 8728PW       W31118   1.644   7.154   3.633  0.1666  0.1654  0.1432
 8728PW      WP31119   1.778   7.118   3.615  0.3292  0.8146 -0.0918
 8728PW      WM31120   1.539   7.069   3.668 -0.0971  0.5296  0.2683
 8729PW       W31121   4.847   0.406   3.795 -0.0584  0.0687 -0.5031
 8729PW      WP31122   4.839   0.490   3.683 -0.2890  0.3719 -0.2696
 8729PW      WM31123   4.836   0.275   3.843 -0.1342  0.1982 -0.1556
 8730PW       W31124   9.548   3.325   1.103 -0.1877  0.0410  0.5809
 8730PW      WP31125   9.677   3.379   1.113  0.0085 -0.3536  0.3061
 8730PW      WM31126   9.568   3.273   0.975  0.2877  0.0873  0.6267
 8731PW       W31127   0.910  11.081   8.749  0.3894  0.4669  0.2190
 8731PW      WP31128   0.801  11.157   8.794 -0.2318 -0.0322 -0.3431
 8731PW      WM31129   0.990  11.011   8.840 -0.0531 -0.0978  0.2005
 8732PW       W31130   9.946  11.901   5.337  0.0567  0.3981 -0.1026
 8732PW      WP31131   9.874  11.816   5.253  0.2954 -0.2244  0.2941
 8732PW      WM31132  10.074  11.959   5.328  0.1088  0.3737  0.3729
 8733PW       W31133   0.208   1.731  12.524 -0.0909 -0.1776 -0.3154
 8733PW      WP31134   0.113   1.754  12.423 -0.3637  0.4418  0.0538
 8733PW      WM31135   0.300   1.629  12.547  0.4113  0.2948 -0.1125
 8734PW       W31136   1.233   6.387  13.241 -0.1787 -0.6793 -0.4761
 8734PW      WP31137   1.323   6.439  13.147 -0.3106  0.0272 -0.2406
 8734PW      WM31138   1.252   6.333  13.369  0.2749 -0.1502 -0.3026
 8735PW       W31139   8.232  11.113   9.212 -0.5785 -0.0856  0.4697
 8735PW      WP31140   8.304  11.046   9.312  0.0218 -0.3507 -0.1008
 8735PW      WM31141   8.273  11.062   9.088 -0.5166  0.3807  0.2870
 8736PW       W31142   7.637   9.168   0.269  0.1983  0.1837  0.3793
 8736PW      WP31143   7.571   9.283   0.314  0.0148  0.2120  0.0510
 8736PW      WM31144   7.641   9.081   0.379  0.2430  0.1595  0.3583
 8737PW       W31145   0.735   1.783  13.148 -0.5036 -0.1656 -0.2152
 8737PW      WP31146   0.757   1.869  13.040 -0.0388 -0.0001  0.0000
 8737PW      WM31147   0.689   1.776  13.280  0.0414  0.0869  0.0037
 8738PW       W31148  11.925   4.566   3.716  0.3029  0.1317  0.0648
 8738PW      WP31149  11.803   4.579   3.649  0.3873  0.7785  0.0041
 8738PW      WM31150  11.988   4.632   3.610  0.2902  0.0015 -0.0247
 8739PW       W31151   0.687   4.074  11.317  0.5517  0.2914  0.2590
 8739PW      WP31152   0.585   4.136  11.391  0.3476  0.1169  0.1308
 8739PW      WM31153   0.559   4.092  11.264  0.5114  0.0147  0.2521
 8740PW       W31154  11.823   3.508   1.977 -0.5263 -0.0537 -0.1875
 8740PW      WP31155  11.910   3.464   2.078  0.0197  0.5414 -0.3624
 8740PW      WM31156  11.768   3.610   2.057 -0.1664 -0.0261  0.0405
 8741PW       W31157   8.623   3.858   0.608 -0.2298 -0.0335 -0.2808
 8741PW      WP31158   8.675   3.728   0.610  0.2564  0.1536  0.1798
 8741PW      WM31159   8.492   3.906   0.611 -0.2031  0.0742 -0.6206
 8742PW       W31160   4.608  10.212   9.371  0.2087  0.4363  0.2250
 8742PW      WP31161   4.661  10.246   9.246 -0.2997  0.1107 -0.0965
 8742PW      WM31162   4.507  10.206   9.468  0.0123 -0.0813  0.0071
 8743PW       W31163   0.434  11.596   9.481 -0.0012  0.1573 -0.4654
 8743PW      WP31164   0.537  11.689   9.496  0.3337 -0.2937  0.3027
 8743PW      WM31165   0.486  11.466   9.482  0.2705  0.2566  0.0944
 8744PW       W31166   1.402  11.161   0.180  0.0563  0.4476 -0.0298
 8744PW      WP31167   1.507  11.111   0.102  0.1146 -0.0293  0.3305
 8744PW      WM31168   1.485  11.132   0.289  0.1132  0.5310 -0.0510
 8745PW       W31169   5.238   9.336   4.199 -0.0943 -0.4354 -0.3869
 8745PW      WP31170   5.306   9.425   4.116 -0.7426  0.0034 -0.4862
 8745PW      WM31171   5.344   9.270   4.263 -0.0549 -0.1558 -0.1527
 8746PW       W31172   7.887   0.958   4.062 -0.3548  0.1970 -0.1807
 8746PW      WP31173   7.921   1.091   4.039  0.6003  0.0189 -0.0087
 8746PW      WM31174   7.863   0.943   4.199 -0.1007 -0.1811 -0.1696
 8747PW       W31175   9.543   4.865   3.150 -0.1113  0.4471  0.1517
 8747PW      WP31176   9.542   4.993   3.093  0.2651  0.3359 -0.1201
 8747PW      WM31177   9.439   4.857   3.244 -0.0109  0.0182  0.2398
 8748PW       W31178   8.449   3.185  13.369  0.2117 -0.3521 -0.0506
 8748PW      WP31179   8.451   3.317  13.321 -0.0824 -0.0977  0.5826
 8748PW      WM31180   8.500   3.149  13.243  0.4801  0.2927 -0.1431
 8749PW       W31181   0.742   0.579   1.350 -0.1623  0.6976 -0.1494
 8749PW      WP31182   0.757   0.594   1.211 -0.2729 -0.0408 -0.2617
 8749PW      WM31183   0.711   0.588   1.486 -0.1658  0.0842 -0.0962
 8750PW       W31184   7.526   1.771   2.810 -0.0175  0.3619 -0.1428
 8750PW      WP31185   7.565   1.649   2.754 -0.3098  0.1788  0.0419
 8750PW      WM31186   7.569   1.865   2.904 -0.4540  0.1528  0.2830
 8751PW       W31187   0.931   2.890   4.858 -0.2499  0.2704  0.2476
 8751PW      WP31188   0.971   2.964   4.970  0.5467  0.1201  0.0965
 8751PW      WM31189   1.046   2.969   4.847 -0.0457 -0.0675 -0.2744
 8752PW       W31190   0.823  11.894   0.455  0.2805 -0.5083 -0.0272
 8752PW      WP31191   0.695  11.892   0.400  0.3147  0.0816 -0.1545
 8752PW      WM31192   0.956  11.868   0.419  0.2821 -0.2966 -0.1810
 8753PW       W31193  10.578   7.534  10.781 -0.0006 -0.5790  0.3380
 8753PW      WP31194  10.655   7.616  10.698 -0.0565 -0.5895  0.2747
 8753PW      WM31195  10.631   7.427  10.709  0.1887 -0.0631 -0.3309
 8754PW       W31196   8.454   6.206  11.588  0.0290  0.1434  0.3550
 8754PW      WP31197   8.441   6.345  11.601  0.9588  0.2925  0.0880
 8754PW      WM31198   8.356   6.212  11.488  0.2999 -0.0526  0.0666
 8755PW       W31199   8.406   7.653   3.489 -0.0548 -0.1252  0.2790
 8755PW      WP31200   8.282   7.613   3.439 -0.0227 -0.3022  0.3379
 8755PW      WM31201   8.517   7.736   3.466 -0.4179  0.3318  0.0850
 8756PW       W31202   1.401   2.753   3.044  0.1029  0.2669  0.1384
 8756PW      WP31203   1.467   2.729   2.923 -0.5353 -0.2989 -0.1320
 8756PW      WM31204   1.517   2.757   3.122  0.1868 -0.1472  0.0517
 8757PW       W31205   5.428   7.091   3.108 -0.1048 -0.3227 -0.0056
 8757PW      WP31206   5.414   7.133   2.975  0.5597  0.1229  0.0406
 8757PW      WM31207   5.474   7.215   3.155 -0.2968 -0.3387  0.2336
 8758PW       W31208   1.697   0.843  11.775 -0.5295 -0.1833  0.1739
 8758PW      WP31209   1.657   0.927  11.671 -0.3801 -0.1753  0.1215
 8758PW      WM31210   1.704   0.880  11.910  0.3625 -0.1093  0.1406
 8759PW       W31211   7.860   6.520   2.500  0.1768 -0.3815 -0.4058
 8759PW      WP31212   7.973   6.581   2.444 -0.1555  0.5425 -0.1626
 8759PW      WM31213   7.801   6.405   2.552 -0.5033 -0.0069 -0.2901
 8760PW       W31214   1.380  10.117  11.660  0.5191 -0.2446 -0.3158
 8760PW      WP31215   1.480  10.028  11.699  0.2825 -0.4602 -0.1823
 8760PW      WM31216   1.375  10.194  11.542 -0.1312 -0.3386 -0.3693
 8761PW       W31217   1.803   8.156  10.595  0.4547 -0.2506 -0.3059
 8761PW      WP31218   1.814   8.020  10.625  0.7471 -0.2059 -0.1910
 8761PW      WM31219   1.858   8.132  10.469  0.0823 -0.3632 -0.4519
 8762PW       W31220   5.798   3.319   2.070  0.0285 -0.1498  0.0644
 8762PW      WP31221   5.674   3.284   2.124 -0.0002 -0.4580 -0.1878
 8762PW      WM31222   5.907   3.334   2.156 -0.2498  0.1606  0.3771
 8763PW       W31223   6.275  10.993  10.745 -0.0863 -0.1694  0.2707
 8763PW      WP31224   6.175  11.076  10.693  0.0215 -0.1674  0.0611
 8763PW      WM31225   6.387  11.035  10.672 -0.0084 -0.7565  0.0231
 8764PW       W31226   2.024   3.227   8.619 -0.1067  0.0950 -0.0639
 8764PW      WP31227   2.155   3.268   8.594 -0.1319  0.5260  0.4313
 8764PW      WM31228   1.892   3.273   8.624 -0.1831 -0.1442  0.5365
 8765PW       W31229   5.637  10.017   3.181 -0.3010  0.1362  0.0451
 8765PW      WP31230   5.525   9.952   3.234 -0.2498 -0.2729 -0.3245
 8765PW      WM31231   5.772  10.044   3.204 -0.3404 -0.1321  0.6895
 8766PW       W31232   8.349   6.981   0.342  0.0106  0.4156 -0.2881
 8766PW      WP31233   8.328   6.877   0.433  0.3774  0.6752  0.1165
 8766PW      WM31234   8.254   7.082   0.360 -0.5709 -0.0299 -0.6893
 8767PW       W31235   5.196   9.546  12.609  0.1708 -0.1167 -0.1237
 8767PW      WP31236   5.264   9.425  12.629 -0.1717 -0.2952  0.0116
 8767PW      WM31237   5.063   9.503  12.605  0.0955  0.0839  0.0938
 8768PW       W31238   7.627   2.169   5.629  0.5703  0.2765  0.2745
 8768PW      WP31239   7.693   2.099   5.527 -0.2375 -0.1852  0.0228
 8768PW      WM31240   7.540   2.277   5.618  0.2916  0.0198 -0.2720
 8769PW       W31241   9.071   6.525  12.055  0.2175 -0.0127  0.1731
 8769PW      WP31242   9.167   6.502  11.955  0.1312  0.2017  0.0373
 8769PW      WM31243   8.944   6.543  12.112  0.2595 -0.4834  0.4458
 8770PW       W31244   7.734   3.996  10.329 -0.1954  0.3413 -0.1717
 8770PW      WP31245   7.753   3.863  10.369  0.4223  0.4199 -0.1540
 8770PW      WM31246   7.870   4.031  10.340 -0.2319  0.3070  0.7600
 8771PW       W31247   2.012   5.492  12.953 -0.2304  0.2831 -0.0355
 8771PW      WP31248   2.088   5.597  13.007 -0.1271  0.3081 -0.2258
 8771PW      WM31249   2.100   5.388  12.980 -0.3927  0.1059 -0.1773
 8772PW       W31250  12.044  11.153  11.471  0.0175  0.0712  0.1197
 8772PW      WP31251  12.006  11.019  11.479 -0.1162  0.1246  0.4871
 8772PW      WM31252  12.118  11.108  11.361 -0.2242  0.1171 -0.0664
 8773PW       W31253  11.574   3.303  13.365 -0.1484 -0.3673  0.2301
 8773PW      WP31254  11.538   3.331  13.232  0.2453 -0.0605  0.1817
 8773PW      WM31255  11.621   3.171  13.369 -0.1188 -0.3763 -0.2075
 8774PW       W31256   7.048   0.903   3.677 -0.0444 -0.0855 -0.1815
 8774PW      WP31257   7.149   0.998   3.660 -0.1767  0.1516  0.2814
 8774PW      WM31258   7.180   0.866   3.646  0.1427  0.2218  0.2084
 8775PW       W31259   6.924   8.485   1.883 -0.1387  0.3446  0.0135
 8775PW      WP31260   6.964   8.371   1.954 -0.1724  0.0895 -0.3602
 8775PW      WM31261   6.968   8.352   1.879 -0.2604  0.2859  0.4005
 8776PW       W31262   9.988   1.372   8.152  0.1516 -0.2046 -0.3846
 8776PW      WP31263   9.941   1.478   8.231  0.0036 -0.4142 -0.1880
 8776PW      WM31264   9.875   1.303   8.196  0.4287 -0.2173  0.3897
 8777PW       W31265  11.081  11.487   3.000 -0.5906  0.2045  0.0120
 8777PW      WP31266  11.067  11.445   2.867  0.3190  0.3048 -0.1486
 8777PW      WM31267  11.160  11.517   3.112 -0.0596  0.5792 -0.4344
 8778PW       W31268   6.861   0.155   9.335 -0.0808  0.0830 -0.1110
 8778PW      WP31269   6.940   0.176   9.222  0.3330 -0.1303  0.1249
 8778PW      WM31270   6.923   0.048   9.400 -0.4157 -0.1628 -0.1804
 8779PW       W31271   7.589   5.477   4.297 -0.2090 -0.3135 -0.1029
 8779PW      WP31272   7.663   5.503   4.181  0.2598 -0.1732  0.2141
 8779PW      WM31273   7.614   5.364   4.375 -0.1088 -0.0492  0.2596
 8780PW       W31274   5.565  10.486   8.942  0.2683 -0.3025  0.1959
 8780PW      WP31275   5.445  10.494   8.869  0.4992  0.1528 -0.1598
 8780PW      WM31276   5.629  10.365   8.969  0.2741 -0.4043 -0.2422
 8781PW       W31277   1.666   8.521   0.800  0.1813  0.6821 -0.0486
 8781PW      WP31278   1.690   8.471   0.929  0.0061 -0.0474 -0.2798
 8781PW      WM31279   1.606   8.472   0.684  0.3025 -0.1937  0.2288
 8782PW       W31280  10.259   9.643  10.817 -0.2443  0.3380  0.3291
 8782PW      WP31281  10.211   9.588  10.936  0.1222  0.1290  0.3875
 8782PW      WM31282  10.248   9.517  10.755  0.0495  0.2853  0.3737
 8783PW       W31283   4.814   0.690  11.423 -0.3613  0.2802  0.0040
 8783PW      WP31284   4.797   0.734  11.291  0.8540 -0.1913 -0.3848
 8783PW      WM31285   4.812   0.817  11.482  0.0111  0.2083  0.1899
 8784PW       W31286  11.098   4.039  10.600  0.4071 -0.1919 -0.0205
 8784PW      WP31287  11.009   4.020  10.494  0.1106  0.7038  0.0207
 8784PW      WM31288  11.085   3.903  10.627  0.3321 -0.1242  0.3098
 8785PW       W31289   2.134   2.251  12.781 -0.3907  0.0098 -0.0686
 8785PW      WP31290   2.204   2.296  12.894 -0.1087 -0.3180 -0.1060
 8785PW      WM31291   2.244   2.191  12.719  0.3795  0.4091  0.7845
 8786PW       W31292  10.167   7.461  12.357 -0.2378 -0.0884 -0.1720
 8786PW      WP31293  10.107   7.432  12.481  0.5217  0.1499  0.2884
 8786PW      WM31294  10.277   7.523  12.418 -0.1330 -0.2851 -0.1574
 8787PW       W31295   9.806   4.782   2.564  0.3831 -0.1266  0.0713
 8787PW      WP31296   9.773   4.914   2.596 -0.3304 -0.3269  0.2539
 8787PW      WM31297   9.933   4.837   2.583  0.3122 -0.0127  0.2375
 8788PW       W31298   7.088   0.514   2.042 -0.5953  0.0253 -0.1286
 8788PW      WP31299   7.058   0.387   2.093  0.1084 -0.2018 -0.2213
 8788PW      WM31300   7.092   0.476   1.908  0.0714 -0.2539 -0.0494
 8789PW       W31301   4.250   4.336   2.640 -0.1646  0.2996  0.3921
 8789PW      WP31302   4.140   4.415   2.604 -0.2227 -0.0392 -0.2506
 8789PW      WM31303   4.274   4.245   2.744 -0.2797 -0.0478  0.1225
 8790PW       W31304   9.180   2.385   2.314  0.0850  0.2250  0.0785
 8790PW      WP31305   9.106   2.495   2.266 -0.4215 -0.1725 -0.0972
 8790PW      WM31306   9.147   2.355   2.446 -0.5186  0.0987 -0.0863
 8791PW       W31307   5.868   9.683   4.941 -0.1330  0.5320 -0.2278
 8791PW      WP31308   5.897   9.553   4.897  0.1386  0.3911  0.3264
 8791PW      WM31309   5.940   9.775   5.018 -0.1068  0.3173  0.0095
 8792PW       W31310   5.531   7.861   3.803  0.0568  0.1388  0.3966
 8792PW      WP31311   5.451   7.877   3.917  0.1509  0.6412  0.4038
 8792PW      WM31312   5.437   7.867   3.700 -0.0097 -0.8607  0.3480
 8793PW       W31313  11.621   9.022   9.586  0.3210  0.1030  0.1318
 8793PW      WP31314  11.739   9.091   9.617  0.5302 -0.0361 -0.3094
 8793PW      WM31315  11.725   8.977   9.503  0.0912 -0.1903 -0.0043
 8794PW       W31316   4.594   0.962   4.211 -0.4331 -0.0815  0.1193
 8794PW      WP31317   4.553   0.968   4.345 -0.2825 -0.3854  0.1842
 8794PW      WM31318   4.503   0.899   4.126 -0.2211 -0.0247 -0.1591
 8795PW       W31319   0.247   0.659  11.986  0.3765  0.5417  0.4935
 8795PW      WP31320   0.149   0.714  12.068 -0.1144 -0.0750  0.3576
 8795PW      WM31321   0.382   0.685  11.959  0.5045 -0.6475 -0.4329
 8796PW       W31322  10.384   3.757   4.679 -0.5801 -0.5908 -0.1651
 8796PW      WP31323  10.339   3.850   4.585 -0.0107  0.2610  0.3381
 8796PW      WM31324  10.492   3.688   4.735 -0.1841 -0.0505 -0.2211
 8797PW       W31325   1.618   7.787  10.048 -0.1330  0.1142  0.1781
 8797PW      WP31326   1.563   7.867   9.948 -0.1674  0.2119  0.2739
 8797PW      WM31327   1.715   7.824   9.954 -0.1478 -0.0669  0.0892
 8798PW       W31328   5.797   5.932   4.955  0.0588  0.1269  0.2037
 8798PW      WP31329   5.667   5.984   4.961  0.1595  0.3746  0.2962
 8798PW      WM31330   5.698   5.835   4.933  0.1724 -0.0421  0.4118
 8799PW       W31331  10.346   1.737  11.203 -0.6863 -0.5043 -0.0945
 8799PW      WP31332  10.416   1.623  11.245  0.2403 -0.0147 -0.1890
 8799PW      WM31333  10.299   1.712  11.333 -0.5969  0.1546  0.0846
 8800PW       W31334   9.521  10.926  10.771  0.0160 -0.2817  0.1406
 8800PW      WP31335   9.535  10.835  10.666 -0.4639 -0.0032 -0.1863
 8800PW      WM31336   9.614  10.917  10.875 -0.3047 -0.1047  0.4498
 8801PW       W31337   5.891   7.495  12.746 -0.4454 -0.2161  0.0957
 8801PW      WP31338   5.804   7.596  12.703 -0.3115  0.0283  0.3814
 8801PW      WM31339   5.962   7.550  12.853 -0.5208  0.3147 -0.1121
 8802PW       W31340   4.408  11.051  11.606  0.0866 -0.0813 -0.1146
 8802PW      WP31341   4.444  11.125  11.493  0.2312  0.1123  0.0552
 8802PW      WM31342   4.481  10.958  11.532 -0.0851 -0.1338 -0.2237
 8803PW       W31343   2.851   0.102   1.350  0.2616 -0.1124 -0.2988
 8803PW      WP31344   2.943   0.006   1.307  0.2185 -0.1710 -0.2615
 8803PW      WM31345   2.824  -0.011   1.428 -0.2199  0.4673  0.4472
 8804PW       W31346   7.725   9.368   9.078 -0.2014 -0.4568  0.0581
 8804PW      WP31347   7.747   9.502   9.045 -0.0202 -0.4963  0.0115
 8804PW      WM31348   7.658   9.394   9.198  0.1507  0.4607  0.0958
 8805PW       W31349  12.028  11.638  12.252  0.2090 -0.2167 -0.2405
 8805PW      WP31350  12.054  11.558  12.364 -0.3597  0.0822  0.1285
 8805PW      WM31351  11.949  11.749  12.284  0.2768 -0.1850 -0.1837
 8806PW       W31352  12.074  11.488   3.794 -0.0160 -0.3859 -0.2303
 8806PW      WP31353  11.946  11.436   3.773 -0.2111  0.0331 -0.1327
 8806PW      WM31354  12.146  11.399   3.875 -0.0077 -0.0645  0.1319
 8807PW       W31355   2.361   6.743   3.964  0.1614 -0.0415  0.1297
 8807PW      WP31356   2.361   6.745   4.104  0.2289 -0.6294  0.1495
 8807PW      WM31357   2.351   6.758   3.825  0.5563 -0.0660  0.0952
 8808PW       W31358   4.667   9.180  12.216  0.3112 -0.0856 -0.2460
 8808PW      WP31359   4.741   9.124  12.321  0.0599  0.0735  0.0230
 8808PW      WM31360   4.766   9.261  12.159  0.4135 -0.0476 -0.0202
 8809PW       W31361  11.403   8.384   4.610  0.2511  0.0085  0.0540
 8809PW      WP31362  11.396   8.348   4.475 -0.0460  0.1017  0.0410
 8809PW      WM31363  11.305   8.316   4.684  0.0998  0.0101 -0.1427
 8810PW       W31364  10.681   5.974  12.442 -0.4867 -0.6640  0.1790
 8810PW      WP31365  10.770   5.904  12.524  0.4963  0.1001 -0.1431
 8810PW      WM31366  10.574   5.934  12.361 -0.1742  0.0699 -0.6805
 8811PW       W31367   2.741   1.502  10.154  0.2427  0.2551  0.1641
 8811PW      WP31368   2.608   1.479  10.193  0.2050  0.0914 -0.0514
 8811PW      WM31369   2.788   1.572  10.043  0.2004 -0.3642 -0.2671
 8812PW       W31370   9.086  10.079   2.232 -0.3433 -0.4694  0.2944
 8812PW      WP31371   9.107  10.016   2.355 -0.1068 -0.2175  0.3875
 8812PW      WM31372   8.975  10.126   2.160  0.0041 -0.4489 -0.2631
 8813PW       W31373  11.736   7.413   1.555  0.0832 -0.3456  0.2537
 8813PW      WP31374  11.759   7.439   1.419 -0.7826 -0.2478  0.0935
 8813PW      WM31375  11.796   7.287   1.557 -0.0206 -0.4036 -0.0093
 8814PW       W31376   1.784   9.079  10.196 -0.0718 -0.0988  0.0920
 8814PW      WP31377   1.731   9.177  10.280 -0.3562  0.0110 -0.2056
 8814PW      WM31378   1.861   9.019  10.095 -0.1081  0.1293 -0.0751
 8815PW       W31379   7.151   8.617  13.080 -0.4284  0.2178  0.2653
 8815PW      WP31380   7.174   8.514  13.172  0.0335  0.0112 -0.0628
 8815PW      WM31381   7.238   8.578  13.181 -0.2768 -0.1531  0.0015
 8816PW       W31382   0.539   7.646  10.691 -0.3315 -0.1435 -0.1810
 8816PW      WP31383   0.660   7.614  10.754 -0.3827  0.0404  0.0182
 8816PW      WM31384   0.521   7.747  10.595 -0.2043 -0.0391 -0.0985
 8817PW       W31385   1.268   4.581   0.218  0.0587  0.1716 -0.0566
 8817PW      WP31386   1.194   4.511   0.314 -0.0263  0.1504 -0.1375
 8817PW      WM31387   1.359   4.480   0.249 -0.1674  0.1128  0.4674
 8818PW       W31388   6.465   0.414   2.371 -0.3364 -0.2027 -0.4970
 8818PW      WP31389   6.351   0.354   2.318 -0.5553 -0.6442  0.3739
 8818PW      WM31390   6.499   0.467   2.246 -0.3326  0.1712 -0.3455
 8819PW       W31391   6.178   2.706  11.346  0.0545  0.1969 -0.5343
 8819PW      WP31392   6.247   2.807  11.414  0.0074 -0.1843  0.1207
 8819PW      WM31393   6.091   2.810  11.380 -0.0806  0.0102 -0.2967
 8820PW       W31394   3.955   3.255   5.151  0.2710  0.1070  0.0671
 8820PW      WP31395   3.884   3.346   5.071 -0.1050 -0.0349  0.2265
 8820PW      WM31396   4.050   3.187   5.228 -0.0018  0.0047  0.3230
 8821PW       W31397   7.054   6.687  10.315 -0.4960  0.6989 -0.2338
 8821PW      WP31398   6.988   6.697  10.438  0.3171  0.0965  0.3061
 8821PW      WM31399   7.182   6.722  10.269 -0.1834 -0.0012  0.0291
 8822PW       W31400   1.225   4.405   0.708 -0.0291 -0.4849  0.1211
 8822PW      WP31401   1.253   4.469   0.829 -0.4575  0.1657 -0.0995
 8822PW      WM31402   1.249   4.459   0.581 -0.3254 -0.2666  0.1545
 8823PW       W31403   4.863   2.342   8.577  0.0574 -0.1792 -0.0997
 8823PW      WP31404   4.853   2.456   8.497 -0.1395  0.0991  0.2995
 8823PW      WM31405   4.747   2.287   8.522  0.5138 -0.4265 -0.8867
 8824PW       W31406  10.332   0.642   0.485  0.0599 -0.2247  0.1867
 8824PW      WP31407  10.384   0.772   0.471  0.1007 -0.2947 -0.4429
 8824PW      WM31408  10.236   0.649   0.384  0.0124  0.3489  0.2502
 8825PW       W31409   2.414   6.973   5.232 -0.1629  0.0034 -0.0800
 8825PW      WP31410   2.441   6.836   5.239 -0.4098 -0.0476 -0.0728
 8825PW      WM31411   2.476   7.000   5.109  0.2993  0.0670  0.1567
 8826PW       W31412   1.586  10.731  11.748  0.2473 -0.4911  0.0425
 8826PW      WP31413   1.626  10.851  11.689  0.0134 -0.5064 -0.1526
 8826PW      WM31414   1.467  10.701  11.815  0.1734 -0.3501 -0.0238
 8827PW       W31415   3.652   3.667  10.668  0.4853  0.1055 -0.0170
 8827PW      WP31416   3.671   3.578  10.774 -0.1083  0.1702  0.1616
 8827PW      WM31417   3.620   3.589  10.556 -0.1561  0.2735  0.0281
 8828PW       W31418   3.920   0.776   1.097 -0.0271 -0.2271 -0.3533
 8828PW      WP31419   3.924   0.645   1.145 -0.2485  0.0266  0.4422
 8828PW      WM31420   3.932   0.717   0.971  0.5537 -0.0263 -0.4085
 8829PW       W31421  11.336   7.239   0.886 -0.0712  0.2005  0.1504
 8829PW      WP31422  11.276   7.362   0.916 -0.0783  0.2242  0.0412
 8829PW      WM31423  11.271   7.231   1.010 -0.3656 -0.1064 -0.0140
 8830PW       W31424   1.283  11.955   9.898 -0.0662  0.1341  0.1013
 8830PW      WP31425   1.211  12.042   9.980  0.0534  0.1959  0.1430
 8830PW      WM31426   1.377  11.997   9.993  0.1426 -0.1764  0.0397
 8831PW       W31427   6.707   3.649  11.181 -0.1652  0.2861  0.0871
 8831PW      WP31428   6.670   3.543  11.098 -0.0269  0.1364  0.2137
 8831PW      WM31429   6.801   3.602  11.274  0.1199  0.3170 -0.1805
 8832PW       W31430  11.868   7.972  11.016  0.4481  0.3165 -0.4396
 8832PW      WP31431  11.891   7.835  11.001 -0.6618  0.0660 -0.3175
 8832PW      WM31432  11.813   8.040  11.126 -0.3953 -0.4060 -0.3572
 8833PW       W31433   8.446   7.208   3.344  0.2783  0.2280  0.0756
 8833PW      WP31434   8.473   7.211   3.481  0.0863  0.3755  0.1127
 8833PW      WM31435   8.476   7.123   3.237 -0.2008  0.1446 -0.0043
 8834PW       W31436   6.620   5.314   1.488 -0.5343  0.3452  0.1781
 8834PW      WP31437   6.485   5.281   1.500 -0.4449 -0.0453  0.1644
 8834PW      WM31438   6.643   5.220   1.589  0.1692 -0.1366 -0.3775
 8835PW       W31439   0.649   9.249   3.211 -0.2262 -0.0119  0.1955
 8835PW      WP31440   0.551   9.200   3.125  0.2896 -0.1628 -0.3333
 8835PW      WM31441   0.632   9.366   3.287 -0.0935  0.1154  0.0327
 8836PW       W31442   3.230   7.278  12.512 -0.0497  0.0259  0.1017
 8836PW      WP31443   3.335   7.259  12.421  0.1856  0.2166  0.3240
 8836PW      WM31444   3.354   7.308  12.570 -0.0167 -0.3021  0.2108
 8837PW       W31445   0.277   0.365   0.099 -0.0440 -0.2427  0.0636
 8837PW      WP31446   0.400   0.304   0.072  0.1274  0.0807  0.0896
 8837PW      WM31447   0.168   0.285   0.063  0.0672 -0.2224 -0.3374
 8838PW       W31448   0.250   9.045  11.162 -0.2224 -0.3402 -0.1768
 8838PW      WP31449   0.388   9.067  11.165 -0.2867  0.1575 -0.3738
 8838PW      WM31450   0.179   8.975  11.064 -0.2917 -0.4216 -0.0695
 8839PW       W31451   6.537   1.925   8.538  0.4759 -0.1757  0.0647
 8839PW      WP31452   6.514   1.823   8.445  0.4024  0.0278 -0.1454
 8839PW      WM31453   6.518   1.977   8.667 -0.3400  0.0067 -0.1002
 8840PW       W31454   4.252  11.327   4.219 -0.1607  0.1150  0.3025
 8840PW      WP31455   4.369  11.285   4.154 -0.1462  0.0066  0.3967
 8840PW      WM31456   4.181  11.399   4.121  0.5449 -0.0392 -0.3690
 8841PW       W31457   9.108   9.817   3.020 -0.0094 -0.0064  0.3395
 8841PW      WP31458   9.124   9.759   2.894  0.6166  0.3172  0.2535
 8841PW      WM31459   9.172   9.790   3.142  0.0143 -0.0500  0.3174
 8842PW       W31460   4.018   0.981  11.966  0.0467  0.1503 -0.4979
 8842PW      WP31461   3.886   0.980  11.919 -0.1938 -0.6278  0.0762
 8842PW      WM31462   3.940   0.953  12.079  0.1927  0.1294 -0.4012
 8843PW       W31463   2.054   1.281   2.107 -0.1049  0.2836 -0.0610
 8843PW      WP31464   1.919   1.242   2.099  0.0884 -0.4104 -0.2575
 8843PW      WM31465   2.058   1.381   2.009  0.2499 -0.1169 -0.4812
 8844PW       W31466  10.942  10.358   2.667 -0.1233 -0.3315 -0.4739
 8844PW      WP31467  11.082  10.363   2.656 -0.0680 -0.0349  0.1350
 8844PW      WM31468  10.923  10.249   2.753  0.1887 -0.0145  0.0225
 8845PW       W31469  10.731   2.565   1.012  0.0383 -0.1497 -0.0219
 8845PW      WP31470  10.846   2.599   0.939  0.1110  0.5162  0.3682
 8845PW      WM31471  10.802   2.639   1.106 -0.1157  0.0505 -0.0610
 8846PW       W31472   0.947   5.517   9.960  0.0927  0.2117  0.0402
 8846PW      WP31473   0.941   5.645   9.905  0.2488  0.1274 -0.1796
 8846PW      WM31474   0.906   5.548  10.090 -0.3185 -0.0518 -0.0146
 8847PW       W31475   4.697   6.472   1.384  0.0769 -0.6572  0.6838
 8847PW      WP31476   4.569   6.420   1.405 -0.6551  0.4518 -0.3378
 8847PW      WM31477   4.749   6.408   1.271  0.0843 -0.3715  0.5184
 8848PW       W31478   4.370   0.261  12.689 -0.3848 -0.1518  0.0114
 8848PW      WP31479   4.504   0.292  12.713 -0.3133 -0.1089 -0.4023
 8848PW      WM31480   4.268   0.341  12.635  0.0035  0.5405  0.2437
 8849PW       W31481   0.473   0.560   4.848 -0.5967  0.1347 -0.2544
 8849PW      WP31482   0.431   0.431   4.814  0.2863 -0.2580 -0.0210
 8849PW      WM31483   0.569   0.471   4.898  0.1573  0.8127 -0.3796
 8850PW       W31484   4.059   9.582  13.382  0.5074 -0.2224  0.0558
 8850PW      WP31485   4.122   9.701  13.348 -0.1433  0.1720  0.1386
 8850PW      WM31486   4.039   9.536  13.251  0.1479 -0.0816  0.0545
 8851PW       W31487   8.775   6.501  13.234 -0.1493  0.5983 -0.0371
 8851PW      WP31488   8.668   6.498  13.143  0.2362  0.4567 -0.5087
 8851PW      WM31489   8.865   6.456  13.330 -0.3721  0.0697 -0.0584
 8852PW       W31490  10.552   5.978  11.079  0.1491  0.0593  0.4910
 8852PW      WP31491  10.448   6.071  11.095  0.1350  0.1675 -0.1252
 8852PW      WM31492  10.583   5.878  11.172  0.4839 -0.3906 -0.0764
 8853PW       W31493   6.922  10.087  12.200  0.2396  0.3771  0.0256
 8853PW      WP31494   7.035  10.032  12.139 -0.1586 -0.6651  0.1354
 8853PW      WM31495   6.888  10.142  12.075  0.2815 -0.0843 -0.1968
 8854PW       W31496   9.318   1.254   4.635  0.0859  0.0175 -0.4477
 8854PW      WP31497   9.250   1.355   4.706  0.6908  0.2864 -0.2170
 8854PW      WM31498   9.417   1.225   4.729 -0.4410 -0.2434  0.0581
 8855PW       W31499   0.604  12.068  11.581  0.1866 -0.0484 -1.0064
 8855PW      WP31500   0.566  11.953  11.650 -0.2532  0.4388 -0.3786
 8855PW      WM31501   0.586  12.203  11.614 -0.2402 -0.3143  0.0298
 8856PW       W31502   7.355   8.714   1.742 -0.6804  0.0092 -0.1001
 8856PW      WP31503   7.303   8.844   1.731 -0.1069  0.2218 -0.6163
 8856PW      WM31504   7.276   8.701   1.626 -0.2048  0.0583 -0.4443
 8857PW       W31505   5.465   5.685   2.472 -0.3618  0.0720  0.1326
 8857PW      WP31506   5.358   5.734   2.395 -0.1801  0.2175 -0.0319
 8857PW      WM31507   5.594   5.630   2.477 -0.3021  0.1191 -0.4936
 8858PW       W31508   0.884  10.718   1.184  0.1342  0.1376  0.1109
 8858PW      WP31509   0.974  10.656   1.272  0.1832  0.0658  0.0107
 8858PW      WM31510   0.814  10.675   1.071  0.6195  0.0284 -0.1643
 8859PW       W31511   5.771   9.041   1.287 -0.3379  0.3763  0.0786
 8859PW      WP31512   5.679   9.028   1.182 -0.0304 -0.2149 -0.1448
 8859PW      WM31513   5.786   8.990   1.416 -0.4737 -0.2134 -0.1208
 8860PW       W31514   9.878   0.919   4.046  0.1307  0.1074  0.4307
 8860PW      WP31515   9.900   1.058   4.053 -0.4737  0.2057  0.7215
 8860PW      WM31516   9.977   0.858   3.968 -0.1799  0.2536 -0.1081
 8861PW       W31517  11.918  11.029   3.720  0.1245 -0.4794  0.2849
 8861PW      WP31518  11.857  11.034   3.846 -0.5690 -0.2467 -0.0371
 8861PW      WM31519  11.927  10.972   3.592  0.0382  0.0846  0.0141
 8862PW       W31520  11.345   2.276  10.517 -0.1449  0.2412  0.1960
 8862PW      WP31521  11.263   2.384  10.483 -0.2450  0.1202  0.0454
 8862PW      WM31522  11.386   2.389  10.588  0.2427 -0.0676  0.4937
 8863PW       W31523   1.995  11.119  12.705  0.0227  0.3085 -0.0585
 8863PW      WP31524   2.073  11.161  12.597 -0.0708  0.3391 -0.1146
 8863PW      WM31525   1.860  11.089  12.727  0.0562 -0.2680 -0.5046
 8864PW       W31526   9.740   7.817   1.791  0.3087  0.3318 -0.1067
 8864PW      WP31527   9.757   7.924   1.879 -0.0622  0.0679  0.3092
 8864PW      WM31528   9.606   7.793   1.758  0.2588  0.3650  0.0649
 8865PW       W31529   3.328   9.837   5.180  0.1488 -0.0238 -0.4606
 8865PW      WP31530   3.392   9.949   5.233 -0.1182 -0.0268 -0.1106
 8865PW      WM31531   3.374   9.724   5.248 -0.8497 -0.3010 -0.1586
 8866PW       W31532   6.188   7.890   2.172  0.2611 -0.1429 -0.0310
 8866PW      WP31533   6.252   7.924   2.053  0.5009  0.2497  0.1986
 8866PW      WM31534   6.262   7.850   2.284 -0.6115 -0.3077  0.5394
 8867PW       W31535   5.372   3.438  12.183 -0.0307 -0.3261 -0.1704
 8867PW      WP31536   5.280   3.334  12.200 -0.8396  0.2748 -0.5162
 8867PW      WM31537   5.438   3.384  12.294 -0.3297 -0.0545  0.1536
 8868PW       W31538   1.885   2.106   2.467  0.1196  0.2264  0.3408
 8868PW      WP31539   1.759   2.133   2.522 -0.2359  0.2738 -0.4289
 8868PW      WM31540   1.897   2.236   2.417  0.3016  0.0301 -0.1640
 8869PW       W31541  11.806   9.313   3.272 -0.1990  0.0087  0.3276
 8869PW      WP31542  11.779   9.181   3.233  0.8101 -0.0060 -0.5592
 8869PW      WM31543  11.873   9.421   3.330 -0.0774 -0.0347  0.2700
 8870PW       W31544   8.862   0.860  12.749  0.1925 -0.0802  0.1976
 8870PW      WP31545   8.740   0.792  12.755  0.1251  0.0437  0.2677
 8870PW      WM31546   8.889   0.872  12.612 -0.4327 -0.1924  0.0453
 8871PW       W31547   8.180   7.927   5.002 -0.0073  0.2256 -0.1018
 8871PW      WP31548   8.047   7.968   4.989 -0.0648  0.3471  0.6252
 8871PW      WM31549   8.295   7.861   5.047 -0.0454  0.3215  0.1467
 8872PW       W31550   2.462  11.411   4.288 -0.2388 -0.1100 -0.0024
 8872PW      WP31551   2.426  11.536   4.338 -0.4234 -0.0092 -0.3676
 8872PW      WM31552   2.452  11.443   4.152  0.4268 -0.6932 -0.2213
 8873PW       W31553   1.952   0.101  12.442 -0.5013  0.1232 -0.2690
 8873PW      WP31554   2.016   0.193  12.358 -0.7536  0.6259  0.0625
 8873PW      WM31555   2.014  -0.011  12.386  0.0063  0.5740 -0.6620
 8874PW       W31556   2.859   5.564  11.787 -0.2427  0.0342  0.2035
 8874PW      WP31557   2.836   5.531  11.921 -0.4041 -0.4039  0.0781
 8874PW      WM31558   2.727   5.557  11.741 -0.0252 -0.0923 -0.4559
 8875PW       W31559  10.615   1.046  11.625  0.0884  0.0338 -0.0644
 8875PW      WP31560  10.641   0.956  11.729  0.2741  0.2365  0.0679
 8875PW      WM31561  10.578   1.041  11.490  0.1258  0.3605 -0.0912
 8876PW       W31562  11.066   7.583   4.306 -0.1802  0.3617 -0.5712
 8876PW      WP31563  10.999   7.660   4.402 -0.0478  0.0825 -0.2466
 8876PW      WM31564  10.995   7.556   4.189 -0.6082 -0.0625 -0.2303
 8877PW       W31565  11.411   7.055   1.723  0.1428 -0.4109  0.3297
 8877PW      WP31566  11.282   7.106   1.739  0.1800 -0.0332 -0.3838
 8877PW      WM31567  11.435   6.967   1.617 -0.0615 -0.0585 -0.0201
 8878PW       W31568   4.023   1.061   4.249 -0.0096  0.2609 -0.4679
 8878PW      WP31569   4.065   1.169   4.170 -0.0129  0.4539 -0.2138
 8878PW      WM31570   4.117   1.090   4.348 -0.4202 -0.1749  0.0820
 8879PW       W31571   1.070  11.244   3.691  0.0469  0.0680 -0.0189
 8879PW      WP31572   1.118  11.115   3.715  0.2305  0.1597  0.1115
 8879PW      WM31573   1.161  11.167   3.617 -0.0281  0.0733 -0.1185
 8880PW       W31574   5.263  10.139   4.868 -0.6664 -0.1467  0.2237
 8880PW      WP31575   5.190  10.020   4.875 -0.3144 -0.3896 -0.0876
 8880PW      WM31576   5.220  10.273   4.871  0.3738  0.2321  0.7912
 8881PW       W31577   5.276   7.427   2.759 -0.0872 -0.3043 -0.3641
 8881PW      WP31578   5.203   7.332   2.688 -0.0474 -0.5145 -0.1328
 8881PW      WM31579   5.143   7.439   2.717 -0.1374  0.2984 -0.0873
 8882PW       W31580   6.859   9.254  12.133  0.2915  0.2004  0.1650
 8882PW      WP31581   6.818   9.359  12.216  0.3127  0.3737 -0.0392
 8882PW      WM31582   6.928   9.143  12.184  0.1555  0.1807  0.3122
 8883PW       W31583  10.379  10.581   8.360  0.2024 -0.3366  0.0420
 8883PW      WP31584  10.314  10.458   8.368 -0.6809  0.0909  0.0199
 8883PW      WM31585  10.316  10.706   8.360  0.2907 -0.2871  0.3614
 8884PW       W31586   0.017   9.860   2.938 -0.1206  0.2344  0.1115
 8884PW      WP31587  -0.080   9.918   2.855 -0.1013  0.2635  0.1090
 8884PW      WM31588   0.084   9.776   2.850  0.2086  0.4393  0.1585
 8885PW       W31589   3.250   7.146   9.163 -0.2958  0.1175  0.2140
 8885PW      WP31590   3.164   7.186   9.061  0.1056  0.0410 -0.1728
 8885PW      WM31591   3.185   7.067   9.259 -0.2667  0.1265  0.2412
 8886PW       W31592   9.691   5.309   3.039 -0.2364 -0.1106 -0.0781
 8886PW      WP31593   9.715   5.240   2.920 -0.6310 -0.1839 -0.1219
 8886PW      WM31594   9.675   5.171   3.057 -0.5464 -0.0673  0.0140
 8887PW       W31595   1.365   3.703   8.959  0.0183  0.2890 -0.2316
 8887PW      WP31596   1.426   3.578   8.947 -0.1542  0.1694  0.0766
 8887PW      WM31597   1.439   3.671   9.074  0.0261 -0.0913 -0.3365
 8888PW       W31598  10.745   1.489  10.488 -0.4088 -0.0755  0.1252
 8888PW      WP31599  10.764   1.357  10.532  0.7569 -0.2784 -0.7392
 8888PW      WM31600  10.776   1.622  10.517  0.3902 -0.2224  0.0539
 8889PW       W31601   6.748   1.239   9.822 -0.0034 -0.2532  0.1433
 8889PW      WP31602   6.841   1.246   9.927  0.1931 -0.3078 -0.0238
 8889PW      WM31603   6.664   1.128   9.807 -0.1210 -0.1223 -0.2084
 8890PW       W31604   8.356  10.914  10.062 -0.1523 -0.3466 -0.3889
 8890PW      WP31605   8.364  10.784  10.013 -0.0232 -0.4684 -0.0622
 8890PW      WM31606   8.376  11.039  10.122  0.1356 -0.4066 -0.3552
 8891PW       W31607   6.518   6.258   8.748  0.0654 -0.4937  0.3342
 8891PW      WP31608   6.525   6.368   8.834 -0.3652  0.0438 -0.2715
 8891PW      WM31609   6.533   6.266   8.888 -0.0492  0.3830  0.3242
 8892PW       W31610   7.476   3.162  11.569 -0.3512 -0.6153  0.1659
 8892PW      WP31611   7.374   3.094  11.500  0.0437 -1.0039 -0.0680
 8892PW      WM31612   7.374   3.167  11.473  0.1428 -0.2845 -0.3765
 8893PW       W31613   3.538   3.904   2.406 -0.3441  0.2113 -0.3284
 8893PW      WP31614   3.516   3.950   2.275  0.1584 -0.4021 -0.6556
 8893PW      WM31615   3.594   3.967   2.517 -0.4699 -0.3052  0.0456
 8894PW       W31616   5.416   2.776   2.469 -0.2584 -0.0567 -0.1713
 8894PW      WP31617   5.425   2.647   2.416  0.4134 -0.2401  0.3209
 8894PW      WM31618   5.314   2.868   2.495 -0.1758  0.0278 -0.1424
 8895PW       W31619   0.253   8.331  12.192  0.7282 -0.3592 -0.1530
 8895PW      WP31620   0.268   8.458  12.250  0.2828 -0.1257 -0.5085
 8895PW      WM31621   0.241   8.226  12.101  0.0903 -0.4781  0.0401
 8896PW       W31622   3.114   8.940   8.970  0.0141  0.3991  0.0955
 8896PW      WP31623   3.170   8.912   8.845 -0.1018 -0.0229  0.1302
 8896PW      WM31624   3.146   8.995   8.845  0.3940 -0.1670 -0.0763
 8897PW       W31625  10.227   3.077   2.354  0.4665 -0.3436 -0.1821
 8897PW      WP31626  10.195   3.060   2.218 -0.2205  0.2780 -0.1342
 8897PW      WM31627  10.088   3.088   2.366  0.4828 -0.5397  0.2475
 8898PW       W31628   3.063   2.574  12.540 -0.2023  0.1691  0.0202
 8898PW      WP31629   3.071   2.712  12.558  0.1618  0.1651 -0.0776
 8898PW      WM31630   3.134   2.456  12.562 -0.5376  0.0196  0.3605
 8899PW       W31631   4.785  11.491   8.322  0.2711  0.3182  0.3369
 8899PW      WP31632   4.664  11.428   8.357 -0.0816  0.7498 -0.0509
 8899PW      WM31633   4.828  11.546   8.443  0.3413  0.2399  0.3477
 8900PW       W31634   0.962   3.291  10.709  0.1582  0.2653  0.3163
 8900PW      WP31635   1.072   3.220  10.758  0.2888  0.4751  0.3329
 8900PW      WM31636   0.900   3.185  10.777  0.3856  0.2465  0.5009
 8901PW       W31637   8.700   8.406   0.561  0.3028 -0.1749  0.2126
 8901PW      WP31638   8.719   8.545   0.566 -0.5059 -0.0470  0.4377
 8901PW      WM31639   8.687   8.402   0.700 -0.1347  0.2570  0.1970
 8902PW       W31640   7.065   4.818   3.596  0.1471 -0.1393  0.2093
 8902PW      WP31641   6.927   4.838   3.585  0.1267 -0.2979  0.1691
 8902PW      WM31642   7.095   4.742   3.482  0.3436  0.5378 -0.2241
 8903PW       W31643   4.921   6.341  11.472 -0.4943 -0.2393 -0.1784
 8903PW      WP31644   4.969   6.269  11.363  0.2387  0.0921 -0.1053
 8903PW      WM31645   4.913   6.361  11.611 -0.1913  0.0635 -0.1992
 8904PW       W31646   4.751   1.123   1.861 -0.1587 -0.2338 -0.0030
 8904PW      WP31647   4.839   1.171   1.958 -0.2398  0.1879 -0.1288
 8904PW      WM31648   4.722   0.994   1.814  0.0421 -0.2386 -0.1169
 8905PW       W31649   0.103   3.806   3.154 -0.0003 -0.2101 -0.3286
 8905PW      WP31650   0.071   3.942   3.156  0.3317 -0.1271  0.1110
 8905PW      WM31651  -0.016   3.733   3.156  0.0398 -0.2932  0.3210
 8906PW       W31652   8.953  11.014   8.779 -0.2483 -0.2372  0.0266
 8906PW      WP31653   8.948  10.983   8.916  0.1226  0.3847  0.2033
 8906PW      WM31654   9.059  11.098   8.744 -0.4717 -0.0133 -0.1313
 8907PW       W31655   0.383   9.384   3.868  0.0436 -0.2589 -0.4740
 8907PW      WP31656   0.347   9.498   3.795 -0.0950  0.2764  0.3598
 8907PW      WM31657   0.434   9.328   3.986  0.4815  0.2659 -0.3934
 8908PW       W31658   5.281   7.707   1.157 -0.3959 -0.4605  0.2994
 8908PW      WP31659   5.371   7.619   1.219 -0.2551 -0.4845  0.0660
 8908PW      WM31660   5.143   7.728   1.160 -0.3183  0.2293 -0.0543
 8909PW       W31661   8.086   2.581   5.117  0.0409 -0.2817  0.2208
 8909PW      WP31662   8.175   2.608   5.222 -0.0523 -0.0045  0.2311
 8909PW      WM31663   7.956   2.627   5.098  0.1510  0.2150  0.5804
 8910PW       W31664   5.494   0.387   1.366 -0.0705 -0.2609  0.0576
 8910PW      WP31665   5.529   0.512   1.313 -0.3046 -0.2976 -0.1957
 8910PW      WM31666   5.484   0.327   1.240  0.2328  0.3757 -0.2941
 8911PW       W31667   8.830   2.163  13.275  0.0533  0.2331  0.1802
 8911PW      WP31668   8.787   2.032  13.298 -0.0386  0.2141 -0.0779
 8911PW      WM31669   8.940   2.239  13.316  0.1485  0.0803  0.2141
 8912PW       W31670  10.767   5.638  13.343 -0.0478 -0.4096 -0.1293
 8912PW      WP31671  10.725   5.686  13.218  0.1559 -0.0981 -0.0839
 8912PW      WM31672  10.889   5.659  13.276 -0.1033 -0.5432 -0.2767
 8913PW       W31673   6.420   5.184   2.960 -0.5944 -0.4486  0.1211
 8913PW      WP31674   6.467   5.099   3.061  0.1243 -0.0607  0.1490
 8913PW      WM31675   6.337   5.242   3.057 -0.3329  0.3754 -0.1012
 8914PW       W31676   8.606   4.136   5.746 -0.1474  0.0496 -0.0340
 8914PW      WP31677   8.602   4.009   5.688 -0.1943 -0.1518  0.3909
 8914PW      WM31678   8.477   4.188   5.738 -0.0836  0.2001 -0.0924
 8915PW       W31679   5.870   5.525  10.439 -0.3127  0.3976  0.3220
 8915PW      WP31680   5.811   5.444  10.341 -0.1230  0.2040  0.3638
 8915PW      WM31681   5.936   5.458  10.542  0.0290  0.2278  0.0082
 8916PW       W31682   9.833   2.199   1.678  0.0233 -0.0308 -0.0133
 8916PW      WP31683   9.732   2.126   1.613 -0.0485  0.1487 -0.1067
 8916PW      WM31684   9.717   2.136   1.629 -0.2090  0.2898  0.1115
 8917PW       W31685   8.745   1.195  13.268  0.2220  0.2441 -0.0902
 8917PW      WP31686   8.810   1.198  13.392 -0.3460  0.3239  0.2254
 8917PW      WM31687   8.737   1.335  13.260 -0.1467  0.2379  0.0544
 8918PW       W31688   1.748   9.120   1.828  0.0632  0.0735 -0.1571
 8918PW      WP31689   1.719   9.191   1.945 -0.0353 -0.1641 -0.0321
 8918PW      WM31690   1.869   9.050   1.827  0.0178 -0.0116  0.0122
 8919PW       W31691   6.384  12.126  11.634 -0.4333  0.1238 -0.3561
 8919PW      WP31692   6.324  12.150  11.758 -0.3875  0.1179 -0.3328
 8919PW      WM31693   6.452  12.127  11.512 -0.3487 -0.2193 -0.3149
 8920PW       W31694   1.499   0.030  12.710  0.4772  0.1340  0.1487
 8920PW      WP31695   1.501   0.101  12.589  0.4988 -0.0082  0.0649
 8920PW      WM31696   1.415  -0.071  12.662  0.3112  0.2286  0.2345
 8921PW       W31697  10.524   6.229  12.906  0.0300  0.3009  0.2850
 8921PW      WP31698  10.475   6.348  12.852 -0.3077 -0.0876 -0.3227
 8921PW      WM31699  10.522   6.343  12.825  0.2743  0.2981  0.2717
 8922PW       W31700  11.166   5.806  11.298  0.2591  0.0661  0.5893
 8922PW      WP31701  11.192   5.863  11.423 -0.5422 -0.0959  0.8627
 8922PW      WM31702  11.225   5.684  11.264  0.1215  0.0989  0.2024
 8923PW       W31703   5.150   4.352  12.112 -0.2238 -0.4583  0.0387
 8923PW      WP31704   5.132   4.471  12.184 -0.4827 -0.4034 -0.1142
 8923PW      WM31705   5.027   4.361  12.047 -0.1019  0.3622 -0.1354
 8924PW       W31706  11.435   3.043  11.088 -0.0834 -0.1772  0.0989
 8924PW      WP31707  11.333   3.136  11.062  0.3092  0.1666 -0.2984
 8924PW      WM31708  11.561   2.988  11.064 -0.0614 -0.0194 -0.1623
 8925PW       W31709   3.536   9.607  12.367  0.1751  0.1054 -0.0489
 8925PW      WP31710   3.448   9.515  12.309 -0.2461  0.0855  0.5718
 8925PW      WM31711   3.487   9.727  12.421 -0.4650 -0.4330  0.6994
 8926PW       W31712   7.692   3.757   0.980 -0.6327  0.1303  0.0663
 8926PW      WP31713   7.604   3.721   0.877 -0.3274 -0.0338 -0.1454
 8926PW      WM31714   7.730   3.721   1.110 -0.3598 -0.0143 -0.0497
 8927PW       W31715   7.065   9.545   3.341 -0.1933  0.2464  0.5910
 8927PW      WP31716   7.193   9.511   3.388  0.0009  0.2788  0.1180
 8927PW      WM31717   7.055   9.520   3.478  0.1962 -0.1264  0.5623
 8928PW       W31718   2.738   3.771   0.508  0.3313  0.2753  0.3258
 8928PW      WP31719   2.809   3.650   0.518  0.2431  0.2093  0.1717
 8928PW      WM31720   2.813   3.884   0.542  0.3749  0.4209 -0.2187
 8929PW       W31721   1.293   2.192  10.880  0.1460  0.0305  0.0760
 8929PW      WP31722   1.176   2.243  10.824  0.2348  0.1556  0.0026
 8929PW      WM31723   1.399   2.283  10.877  0.2437 -0.0785 -0.7490
 8930PW       W31724   8.586   6.103   2.099 -0.0178 -0.1132 -0.0304
 8930PW      WP31725   8.474   6.062   2.172  0.3406 -0.4729  0.3502
 8930PW      WM31726   8.686   6.010   2.131  0.0262  0.0740  0.4204
 8931PW       W31727   8.184   9.116   3.926  0.1876  0.1169 -0.3182
 8931PW      WP31728   8.197   9.227   4.011  0.3731 -0.1262 -0.0188
 8931PW      WM31729   8.087   9.050   4.001  0.4688 -0.2008 -0.2214
 8932PW       W31730   5.677  10.674  12.093 -0.3604  0.1671 -0.1923
 8932PW      WP31731   5.574  10.643  12.183  0.0831 -0.2947  0.1880
 8932PW      WM31732   5.767  10.736  12.180 -0.2663 -0.3671  0.1133
 8933PW       W31733   7.430   3.571  11.152  0.1300 -0.3393  0.0779
 8933PW      WP31734   7.314   3.533  11.222 -0.1851 -0.0003 -0.2384
 8933PW      WM31735   7.569   3.558  11.138  0.1985  0.2216  0.1189
 8934PW       W31736   3.544   6.266   0.767  0.4349  0.1375  0.1816
 8934PW      WP31737   3.476   6.163   0.832 -0.2040  0.5181  0.1611
 8934PW      WM31738   3.508   6.327   0.887  0.2741 -0.0478  0.2288
 8935PW       W31739   1.049   4.100  12.305 -0.1689 -0.1828  0.1608
 8935PW      WP31740   0.986   4.065  12.185 -0.0159  0.5471 -0.1607
 8935PW      WM31741   1.012   3.984  12.373  0.2485 -0.5373 -0.1788
 8936PW       W31742  11.576   1.749   1.494  0.0006  0.0012 -0.2154
 8936PW      WP31743  11.682   1.815   1.557 -0.1130  0.0422 -0.0634
 8936PW      WM31744  11.455   1.753   1.424 -0.0062 -0.2567 -0.2220
 8937PW       W31745   5.496  10.463   3.019 -0.2561 -0.0773 -0.0868
 8937PW      WP31746   5.373  10.401   2.993 -0.0810 -0.3923 -0.2078
 8937PW      WM31747   5.525  10.502   2.887 -0.3735 -0.1931 -0.1487
 8938PW       W31748   3.766  10.991   2.455  0.1191  0.2689 -0.1030
 8938PW      WP31749   3.830  11.032   2.573 -0.4084  0.0456  0.2831
 8938PW      WM31750   3.762  10.892   2.357  0.0724  0.1364  0.0312
 8939PW       W31751   2.739   1.901   9.743  0.4716 -0.0546  0.3553
 8939PW      WP31752   2.763   1.939   9.876  0.3390 -0.2159  0.4259
 8939PW      WM31753   2.695   1.786   9.677 -0.0059  0.5059 -0.4004
 8940PW       W31754   2.539   3.100   5.432 -0.3212 -0.0440 -0.2459
 8940PW      WP31755   2.612   3.175   5.340  0.1691  0.1949  0.3023
 8940PW      WM31756   2.557   2.972   5.380  0.5310 -0.1101  0.1316
 8941PW       W31757  11.349   9.726   4.559  0.2203  0.3186 -0.1730
 8941PW      WP31758  11.317   9.609   4.629  0.1030  0.4207 -0.0522
 8941PW      WM31759  11.378   9.780   4.685 -0.1625 -0.4521  0.2814
 8942PW       W31760   4.225  10.314  12.068  0.1420  0.2625  0.0788
 8942PW      WP31761   4.240  10.177  12.092  0.0289  0.1838 -0.2737
 8942PW      WM31762   4.107  10.241  12.057  0.1726  0.1897  0.2230
 8943PW       W31763  11.455   6.400   2.489  0.0027  0.0943 -0.3439
 8943PW      WP31764  11.403   6.403   2.619  0.0866  0.4483 -0.3143
 8943PW      WM31765  11.432   6.352   2.359 -0.1399 -0.2132 -0.2097
 8944PW       W31766   1.717   5.189  11.777  0.0414  0.2802 -0.0810
 8944PW      WP31767   1.728   5.147  11.644  0.1674 -0.1230  0.0484
 8944PW      WM31768   1.622   5.087  11.789  0.0772  0.2420 -0.1202
 8945PW       W31769   1.176   0.427   3.718  0.1966  0.6000  0.4837
 8945PW      WP31770   1.069   0.507   3.675 -0.2688 -0.2386 -0.0645
 8945PW      WM31771   1.263   0.377   3.620 -0.2798 -0.2851  0.4557
 8946PW       W31772   2.538   8.548   3.247  0.3867 -0.0564 -0.0148
 8946PW      WP31773   2.429   8.468   3.211  0.1212  0.2907 -0.0218
 8946PW      WM31774   2.651   8.469   3.221  0.0288 -0.5174 -0.2410
 8947PW       W31775   7.770  10.976   1.683 -0.0366  0.3051  0.3943
 8947PW      WP31776   7.766  10.923   1.813  0.0736  0.6501  0.5455
 8947PW      WM31777   7.850  11.088   1.660  0.0458  0.1815  0.0491
 8948PW       W31778   3.579   6.614  10.789  0.3024 -0.3640  0.3414
 8948PW      WP31779   3.565   6.511  10.696 -0.1963  0.1629 -0.2075
 8948PW      WM31780   3.491   6.650  10.892 -0.3090 -0.6977 -0.0376
 8949PW       W31781   2.927   2.678  11.209 -0.0150  0.1754 -0.3785
 8949PW      WP31782   3.057   2.729  11.215 -0.1129  0.4002 -0.0100
 8949PW      WM31783   2.906   2.614  11.086  0.5475 -0.0708 -0.3569
 8950PW       W31784   8.151   6.981   5.304  0.2245 -0.0622 -0.0721
 8950PW      WP31785   8.011   6.981   5.302  0.2208  0.2157 -0.0105
 8950PW      WM31786   8.243   6.937   5.208  0.2441  0.1973 -0.1774
 8951PW       W31787   9.012  10.518   0.607  0.2678  0.0606 -0.2328
 8951PW      WP31788   9.132  10.578   0.568  0.4271  0.1112  0.2962
 8951PW      WM31789   8.903  10.570   0.536  0.0755  0.0939  0.0802
 8952PW       W31790   0.391   8.764  10.761 -0.1173 -0.0491  0.2088
 8952PW      WP31791   0.419   8.669  10.860  0.3831  0.0147  0.1412
 8952PW      WM31792   0.511   8.837  10.756  0.0053 -0.2573  0.0181
 8953PW       W31793   8.204   2.702  10.000  0.3436  0.1900  0.0003
 8953PW      WP31794   8.155   2.833   9.989  0.0070  0.0758  0.0641
 8953PW      WM31795   8.315   2.630  10.044  0.2898  0.1028 -0.0042
 8954PW       W31796   4.553   6.783   3.966  0.1030 -0.1309 -0.0577
 8954PW      WP31797   4.473   6.805   4.079  0.1084  0.5083 -0.1576
 8954PW      WM31798   4.658   6.692   3.952  0.4015  0.1710  0.1391
 8955PW       W31799   1.854   6.181   3.160 -0.1643 -0.3857 -0.1354
 8955PW      WP31800   1.969   6.258   3.181 -0.3289 -0.0073 -0.5350
 8955PW      WM31801   1.826   6.189   3.297  0.3021  0.2652 -0.0548
 8956PW       W31802   9.972   6.348   1.632 -0.1996 -0.0274 -0.3661
 8956PW      WP31803   9.872   6.250   1.640 -0.5188  0.2999 -0.2199
 8956PW      WM31804   9.961   6.439   1.526 -0.3043  0.1511 -0.2052
 8957PW       W31805   4.914   2.396   1.411  0.2851 -0.5573  0.3023
 8957PW      WP31806   4.833   2.413   1.524 -0.1654  0.1652 -0.0830
 8957PW      WM31807   4.825   2.308   1.348 -0.2558  0.0815  0.1148
 8958PW       W31808   2.841   6.812   4.683  0.1001  0.1178 -0.2421
 8958PW      WP31809   2.787   6.690   4.728  0.4420  0.0651  0.0514
 8958PW      WM31810   2.940   6.747   4.609  0.2977  0.0080  0.1062
 8959PW       W31811   5.306   1.060   1.889 -0.3216 -0.0972 -0.3268
 8959PW      WP31812   5.255   1.166   1.814  0.0173  0.3629  0.0616
 8959PW      WM31813   5.355   1.007   2.009 -0.1272 -0.2806 -0.4822
 8960PW       W31814   2.536   1.044   9.369  0.1797  0.0590  0.0823
 8960PW      WP31815   2.429   0.998   9.447  0.0885 -0.0196 -0.0850
 8960PW      WM31816   2.552   1.048   9.230  0.3709 -0.2079  0.0936
 8961PW       W31817   1.042   1.368   8.630 -0.0671  0.1514 -0.3706
 8961PW      WP31818   1.118   1.470   8.689 -0.3426  0.2421 -0.1619
 8961PW      WM31819   1.126   1.260   8.602 -0.1272 -0.0282  0.1011
 8962PW       W31820   0.872  11.262  11.936  0.0992 -0.3279 -0.2290
 8962PW      WP31821   0.821  11.156  12.010  0.1873 -0.3508 -0.2004
 8962PW      WM31822   0.777  11.333  11.861  0.2607  0.0403 -0.0968
 8963PW       W31823   5.460   1.035   0.209 -0.7164 -0.3124  0.2579
 8963PW      WP31824   5.420   1.159   0.156  0.3736 -0.1373 -0.2983
 8963PW      WM31825   5.524   0.997   0.327 -0.1926  0.2522  0.1804
 8964PW       W31826   6.559   8.465   0.131  0.2342  0.2175  0.4504
 8964PW      WP31827   6.690   8.417   0.126  0.3268  0.4794  0.1921
 8964PW      WM31828   6.463   8.409   0.046  0.4593 -0.6330  0.7061
 8965PW       W31829   6.637   3.442  10.745  0.0337  0.0887  0.3638
 8965PW      WP31830   6.711   3.323  10.738  0.1382  0.1663  0.1171
 8965PW      WM31831   6.578   3.542  10.667  0.0498 -0.4286 -0.3669
 8966PW       W31832   8.992  10.936   1.418  0.3498 -0.0385  0.2732
 8966PW      WP31833   9.090  10.897   1.326  0.0800 -0.3208  0.0933
 8966PW      WM31834   8.912  10.862   1.505 -0.2469  0.3162  0.0514
 8967PW       W31835   3.580   5.305   4.721  0.1771  0.2439 -0.0143
 8967PW      WP31836   3.622   5.436   4.692  0.2729  0.3435  0.5308
 8967PW      WM31837   3.636   5.251   4.604 -0.0139  0.0996 -0.0409
 8968PW       W31838  11.075   9.415   1.003  0.1704  0.0252  0.6595
 8968PW      WP31839  11.025   9.301   1.066 -0.3547  0.0783  0.3678
 8968PW      WM31840  11.151   9.522   0.954  0.0506 -0.0256  0.3518
 8969PW       W31841   6.690   7.427   2.714  0.3713 -0.0004 -0.0396
 8969PW      WP31842   6.795   7.433   2.622 -0.0428  0.3750 -0.5193
 8969PW      WM31843   6.734   7.397   2.843 -0.0707  0.1391  0.1514
 8970PW       W31844   8.262   0.603   4.299  0.5075 -0.2969 -0.2489
 8970PW      WP31845   8.157   0.520   4.339  0.4915 -0.2949 -0.2873
 8970PW      WM31846   8.342   0.705   4.246 -0.0910  0.4016  0.0965
 8971PW       W31847  11.475   0.800  11.265 -0.0756  0.2449 -0.2356
 8971PW      WP31848  11.548   0.733  11.167 -0.1233  0.4038 -0.3808
 8971PW      WM31849  11.497   0.910  11.349  0.5514 -0.2638  0.3304
 8972PW       W31850   4.118   6.511  13.053  0.2576 -0.1434 -0.1489
 8972PW      WP31851   3.996   6.568  13.015  0.4509  0.1071 -0.4075
 8972PW      WM31852   4.204   6.428  12.981  0.1402 -0.3285 -0.0803
 8973PW       W31853   4.028   4.236   0.878 -0.1801 -0.1363  0.0382
 8973PW      WP31854   4.072   4.109   0.838  0.3787 -0.1388  0.5680
 8973PW      WM31855   3.920   4.201   0.960 -0.1833  0.0481  0.1159
 8974PW       W31856   1.296   2.851   2.270 -0.2810  0.3003 -0.4922
 8974PW      WP31857   1.199   2.791   2.350 -0.0941  0.1437 -0.3801
 8974PW      WM31858   1.414   2.794   2.222  0.0293  0.6731 -0.2111
 8975PW       W31859   6.062  10.210   0.556  0.1465  0.0698 -0.0821
 8975PW      WP31860   5.925  10.228   0.539  0.0542  0.1545  0.6003
 8975PW      WM31861   6.123  10.096   0.609  0.3031  0.1302 -0.1289
 8976PW       W31862   0.890   7.678  12.899  0.0166  0.0801  0.0910
 8976PW      WP31863   0.899   7.717  13.033 -0.2046 -0.0219  0.1373
 8976PW      WM31864   0.989   7.772  12.864 -0.2632  0.2995 -0.1361
 8977PW       W31865   5.275   8.822  10.144  0.1549 -0.0115 -0.0956
 8977PW      WP31866   5.384   8.737  10.166 -0.1264 -0.2218  0.6198
 8977PW      WM31867   5.307   8.845  10.278 -0.2941  0.0634  0.0068
 8978PW       W31868   9.354   6.479   2.494 -0.3962  0.3575  0.0673
 8978PW      WP31869   9.351   6.438   2.360 -0.0648  0.0911  0.1345
 8978PW      WM31870   9.426   6.559   2.405 -0.1819  0.3638  0.2421
 8979PW       W31871  10.829   3.105   2.149  0.1919  0.0617 -0.3083
 8979PW      WP31872  10.779   2.999   2.072 -0.1849  0.2102 -0.2834
 8979PW      WM31873  10.711   3.180   2.149  0.0963 -0.0720  0.1917
 8980PW       W31874   4.341   1.515   2.681  0.5982  0.1770  0.3819
 8980PW      WP31875   4.402   1.641   2.683  0.0280  0.4875 -0.0462
 8980PW      WM31876   4.372   1.404   2.759  0.1695  0.1790  0.5671
 8981PW       W31877   1.035   2.812   3.428 -0.1679 -0.1503  0.3310
 8981PW      WP31878   1.106   2.751   3.325 -0.7745 -0.2017 -0.0813
 8981PW      WM31879   0.967   2.922   3.374  0.2208  0.2174  0.5576
 8982PW       W31880  10.746   4.467   0.727 -0.4676 -0.2281 -0.2643
 8982PW      WP31881  10.657   4.536   0.811 -0.1008 -0.2260  0.1428
 8982PW      WM31882  10.757   4.350   0.805 -0.4939 -0.2054 -0.2262
 8983PW       W31883   5.674   8.593   1.149  0.3196  0.0804 -0.1000
 8983PW      WP31884   5.774   8.499   1.120  0.0795 -0.2333  0.0438
 8983PW      WM31885   5.547   8.539   1.124  0.2859  0.1899 -0.1658
 8984PW       W31886   3.593   6.419   2.076 -0.1221  0.1111  0.2762
 8984PW      WP31887   3.499   6.492   2.151 -0.0922  0.1232  0.3021
 8984PW      WM31888   3.720   6.479   2.077 -0.0543 -0.0176 -0.0675
 8985PW       W31889   6.583   1.003   9.357  0.4271 -0.4500 -0.3198
 8985PW      WP31890   6.612   1.007   9.494  0.1816  0.0679 -0.2710
 8985PW      WM31891   6.480   0.924   9.305  0.0469 -0.4147  0.3350
 8986PW       W31892  10.517   5.399  11.708  0.0139  0.1523  0.4989
 8986PW      WP31893  10.629   5.461  11.766  0.0905  0.1371  0.3708
 8986PW      WM31894  10.565   5.278  11.658 -0.1995  0.1455  0.3035
 8987PW       W31895   9.121   5.321   1.882 -0.0755  0.0384 -0.2711
 8987PW      WP31896   9.025   5.225   1.846 -0.1712  0.1910 -0.4332
 8987PW      WM31897   9.165   5.237   1.985 -0.4068  0.2193  0.0292
 8988PW       W31898   8.080   1.813  13.113  0.2341 -0.1968 -0.2799
 8988PW      WP31899   7.962   1.750  13.156  0.4023 -0.4137 -0.1233
 8988PW      WM31900   8.125   1.907  13.205 -0.1093 -0.2319 -0.0662
 8989PW       W31901   1.072   3.271   3.096 -0.0729 -0.3886  0.2441
 8989PW      WP31902   1.140   3.232   2.980  0.0119  0.0734  0.1267
 8989PW      WM31903   0.950   3.257   3.164 -0.2752  0.3926  0.0932
 8990PW       W31904   2.849   3.738   2.864 -0.0238  0.1294  0.2093
 8990PW      WP31905   2.783   3.840   2.795 -0.1029 -0.4313 -0.6129
 8990PW      WM31906   2.894   3.803   2.979  0.0580 -0.1016  0.3101
 8991PW       W31907  10.377   5.652   0.440 -0.2075 -0.0595  0.3047
 8991PW      WP31908  10.250   5.675   0.387 -0.1141 -0.3051 -0.0472
 8991PW      WM31909  10.476   5.587   0.515 -0.1145  0.0667  0.2929
 8992PW       W31910  11.698  10.957   2.990  0.2394 -0.1538  0.0779
 8992PW      WP31911  11.559  10.950   2.983  0.2563 -0.2174 -0.2711
 8992PW      WM31912  11.786  10.848   2.981  0.6196  0.1464  0.0380
 8993PW       W31913   8.801   4.503  12.809  0.5098  0.2231 -0.1239
 8993PW      WP31914   8.854   4.601  12.893  0.2858 -0.1187  0.4410
 8993PW      WM31915   8.815   4.513  12.670 -0.3147 -0.2273 -0.2730
 8994PW       W31916   5.218   0.025   1.664 -0.0727 -0.2435  0.1638
 8994PW      WP31917   5.102   0.049   1.738 -0.1678  0.0007 -0.0547
 8994PW      WM31918   5.350   0.043   1.707 -0.1136  0.4304  0.0632
 8995PW       W31919   4.833   2.945   3.813 -0.0418 -0.0854 -0.0738
 8995PW      WP31920   4.939   2.878   3.751  0.2584  0.5212 -0.2632
 8995PW      WM31921   4.751   3.030   3.738 -0.1288  0.3158  0.4470
 8996PW       W31922   5.904   2.008   1.746 -0.0810 -0.1705 -0.3204
 8996PW      WP31923   6.039   2.038   1.765 -0.0886 -0.3182  0.0026
 8996PW      WM31924   5.890   2.013   1.607 -0.0558  0.2130 -0.3121
 8997PW       W31925   7.596  11.445  11.652 -0.1972  0.3440 -0.1793
 8997PW      WP31926   7.499  11.399  11.741 -0.1137 -0.3571 -0.4177
 8997PW      WM31927   7.527  11.511  11.549 -0.6706  0.0913 -0.0377
 8998PW       W31928  10.029   8.176   9.858  0.3299  0.3023 -0.3856
 8998PW      WP31929  10.114   8.070   9.823  0.1104  0.0501 -0.1745
 8998PW      WM31930  10.067   8.201   9.990  0.0310  0.3463 -0.3043
 8999PW       W31931   9.903   0.263   3.107  0.1483 -0.1885  0.3041
 8999PW      WP31932   9.820   0.373   3.080 -0.1486 -0.4290  0.2182
 8999PW      WM31933   9.826   0.265   3.224 -0.1779 -0.2708  0.0956
 9000PW       W31934  11.280   7.163  11.275 -0.3787  0.4344 -0.1249
 9000PW      WP31935  11.319   7.131  11.406 -0.2991 -0.3607 -0.3166
 9000PW      WM31936  11.344   7.126  11.156  0.2668 -0.1254  0.3560
 9001PW       W31937   4.029   7.310  12.344 -0.0280  0.2098 -0.5156
 9001PW      WP31938   3.942   7.401  12.406  0.0955 -0.2236  0.3826
 9001PW      WM31939   4.129   7.256  12.426  0.1930  0.1474 -0.8168
 9002PW       W31940  12.108   5.617   2.139  0.0443  0.3276  0.4835
 9002PW      WP31941  11.995   5.543   2.175  0.5549 -0.6081  0.3305
 9002PW      WM31942  12.050   5.693   2.037 -0.0945 -0.2393  0.1184
 9003PW       W31943   0.077   3.739  11.369 -0.1962 -0.0013  0.3412
 9003PW      WP31944   0.140   3.638  11.295 -0.1581  0.2489  0.0237
 9003PW      WM31945   0.201   3.784  11.325 -0.2448 -0.2181 -0.0477
 9004PW       W31946   2.075   7.682   2.563 -0.5755 -0.1244 -0.2523
 9004PW      WP31947   1.971   7.643   2.648  0.2030  0.0735  0.9264
 9004PW      WM31948   2.122   7.812   2.541  0.3799 -0.4381 -0.3285
 9005PW       W31949  11.525   1.216  12.883 -0.3462 -0.1409  0.4909
 9005PW      WP31950  11.397   1.267  12.857 -0.2242  0.1214  0.3915
 9005PW      WM31951  11.580   1.126  12.790 -0.0218  0.0909  0.4502
 9006PW       W31952   1.911   0.077   2.628  0.1229 -0.1003  0.0619
 9006PW      WP31953   1.774   0.076   2.656  0.1234 -0.2184  0.0620
 9006PW      WM31954   1.959  -0.025   2.711  0.4196  0.1744  0.2427
 9007PW       W31955  10.905   8.395   1.282 -0.1171  0.2092 -0.0064
 9007PW      WP31956  10.986   8.509   1.279  0.2067 -0.0196 -0.1675
 9007PW      WM31957  10.964   8.466   1.388 -0.0325 -0.1692  0.2123
 9008PW       W31958   6.699   0.591   9.113  0.0429  0.0006  0.2523
 9008PW      WP31959   6.737   0.486   9.028 -0.1917  0.2221 -0.1417
 9008PW      WM31960   6.588   0.625   9.190 -0.4802 -0.4000 -0.2771
 9009PW       W31961   6.182   1.533  10.573 -0.1141  0.0105 -0.3686
 9009PW      WP31962   6.301   1.474  10.616 -0.2672  0.2464  0.4794
 9009PW      WM31963   6.108   1.613  10.485 -0.0716  0.5950  0.0901
 9010PW       W31964   1.178   7.588  10.249  0.0114 -0.1153  0.1032
 9010PW      WP31965   1.153   7.469  10.318 -0.3434  0.1228  0.4046
 9010PW      WM31966   1.209   7.644  10.373 -0.0081 -0.0439  0.0759
 9011PW       W31967  10.889  10.553   2.052  0.1955 -0.2528  0.2768
 9011PW      WP31968  10.893  10.503   2.182 -0.2498  0.0005  0.4014
 9011PW      WM31969  10.911  10.690   2.072 -0.4124 -0.1848  0.5976
 9012PW       W31970  11.605   7.882   2.168 -0.3196 -0.1360  0.1771
 9012PW      WP31971  11.666   7.826   2.055 -0.5300 -0.3696  0.1728
 9012PW      WM31972  11.563   7.959   2.277  0.0233 -0.0728  0.2689
 9013PW       W31973   4.417   3.258   1.409  0.1104 -0.1982 -0.2991
 9013PW      WP31974   4.550   3.260   1.365  0.2454  0.7601  0.0342
 9013PW      WM31975   4.332   3.153   1.371  0.0495 -0.3716  0.2759
 9014PW       W31976   6.039   8.253  10.718  0.2212  0.1262 -0.1017
 9014PW      WP31977   5.977   8.161  10.803  0.4046  0.1015  0.0085
 9014PW      WM31978   6.138   8.173  10.659  0.1266  0.4229 -0.6991
 9015PW       W31979  12.115   5.890   4.607  0.0055 -0.5729  0.2623
 9015PW      WP31980  12.049   5.887   4.731 -0.0843  0.0006  0.2409
 9015PW      WM31981  11.994   5.895   4.538 -0.1097 -0.5573  0.4595
 9016PW       W31982   6.679   3.160   2.573  0.5350 -0.0039  0.1764
 9016PW      WP31983   6.684   3.023   2.549  0.0675 -0.0438  0.2594
 9016PW      WM31984   6.780   3.112   2.489  0.3022 -0.0321 -0.0981
 9017PW       W31985   7.764   1.540   9.768 -0.0274 -0.2157 -0.2219
 9017PW      WP31986   7.722   1.444   9.861 -0.2852  0.4115  0.3561
 9017PW      WM31987   7.825   1.609   9.873 -0.4263 -0.2559  0.0478
 9018PW       W31988   1.869   8.565  11.644 -0.1233 -0.1504  0.1498
 9018PW      WP31989   1.842   8.432  11.678  0.2003 -0.1551  0.4147
 9018PW      WM31990   1.733   8.567  11.676 -0.2542  0.6494 -0.3138
 9019PW       W31991   4.679   8.665  12.202  0.1426 -0.2806 -0.0585
 9019PW      WP31992   4.546   8.707  12.187  0.2975  0.1657 -0.2711
 9019PW      WM31993   4.768   8.771  12.220 -0.2214  0.0353 -0.0590
 9020PW       W31994   0.551   1.525  10.371 -0.2010  0.3350  0.0085
 9020PW      WP31995   0.604   1.412  10.309 -0.1327  0.3587  0.0238
 9020PW      WM31996   0.558   1.628  10.277  0.3101  0.3041 -0.0005
 9021PW       W31997  10.734   0.164  12.210  0.2155 -0.2240 -0.4607
 9021PW      WP31998  10.752   0.290  12.270 -0.4758 -0.3195 -0.0021
 9021PW      WM31999  10.695   0.049  12.279  0.1808 -0.1644 -0.3798
 9022PW       W32000   4.409   2.923   2.732  0.1839  0.1226 -0.1920
 9022PW      WP32001   4.373   2.794   2.689 -0.2759  0.1336  0.1245
 9022PW      WM32002   4.437   2.914   2.869  0.3077  0.0887 -0.2187
 9023PW       W32003   0.129   7.148  10.065 -0.2444 -0.2410 -0.5438
 9023PW      WP32004   0.206   7.264  10.045 -0.1865 -0.1227  0.2198
 9023PW      WM32005   0.070   7.122  10.189 -0.0419  0.5913 -0.2393
 9024PW       W32006   8.432   2.751  11.614  0.0150  0.5230  0.5336
 9024PW      WP32007   8.473   2.867  11.547 -0.1857  0.1582 -0.2822
 9024PW      WM32008   8.558   2.692  11.596 -0.2972 -0.0855  0.2149
 9025PW       W32009   9.495   9.351  12.910 -0.2490  0.1014 -0.6288
 9025PW      WP32010   9.583   9.247  12.876 -0.0004  0.1231 -0.0950
 9025PW      WM32011   9.397   9.269  12.966 -0.1186  0.5129  0.2991
 9026PW       W32012   4.225  10.334   8.319 -0.5734  0.3808  0.1558
 9026PW      WP32013   4.178  10.216   8.262  0.3665 -0.0201  0.1168
 9026PW      WM32014   4.344  10.407   8.335 -0.1511 -0.3357  0.5769
 9027PW       W32015   0.785   6.766  10.021  0.0797  0.0030  0.5164
 9027PW      WP32016   0.863   6.805  10.130 -0.0185  0.0411  0.5734
 9027PW      WM32017   0.791   6.848   9.908  0.1379 -0.0431  0.4858
 9028PW       W32018   6.496   9.228   0.286  0.1033 -0.0567  0.0421
 9028PW      WP32019   6.386   9.142   0.300  0.1841 -0.1358  0.2203
 9028PW      WM32020   6.621   9.275   0.330 -0.1138  0.3396  0.2623
 9029PW       W32021   5.418   4.958   2.591 -0.2229  0.2192 -0.3854
 9029PW      WP32022   5.376   4.849   2.515  0.2745  0.0146 -0.3878
 9029PW      WM32023   5.529   4.940   2.507  0.1739 -0.9425  0.2793
 9030PW       W32024   5.841  10.354   9.910 -0.1307 -0.4969  0.3835
 9030PW      WP32025   5.802  10.368   9.776  0.1266  0.3075  0.3659
 9030PW      WM32026   5.807  10.478   9.855  0.1538 -0.4942  0.2078
 9031PW       W32027  11.069   1.539   5.048  0.0677 -0.1312 -0.1983
 9031PW      WP32028  11.141   1.650   5.093  0.1721 -0.3597  0.2181
 9031PW      WM32029  11.170   1.451   5.084 -0.2343 -0.2993  0.2814
 9032PW       W32030   1.682   0.426  10.854  0.4920 -0.5321 -0.1458
 9032PW      WP32031   1.610   0.335  10.931 -0.1508  0.0699  0.0142
 9032PW      WM32032   1.724   0.557  10.883 -0.3933 -0.2362 -0.0662
 9033PW       W32033   2.674   5.841  11.252 -0.1080  0.4957 -0.1418
 9033PW      WP32034   2.570   5.816  11.162 -0.2588  0.2261  0.0996
 9033PW      WM32035   2.791   5.914  11.275  0.1016  0.1902 -0.2139
 9034PW       W32036   8.495   9.215   2.302  0.0529  0.2816 -0.0762
 9034PW      WP32037   8.528   9.215   2.166  0.0655 -0.0568 -0.0772
 9034PW      WM32038   8.399   9.160   2.388  0.2601 -0.4446 -0.2653
 9035PW       W32039   4.655   1.306   1.393 -0.3069  0.2863 -0.4775
 9035PW      WP32040   4.737   1.243   1.298 -0.0072 -0.2277  0.0833
 9035PW      WM32041   4.663   1.383   1.276  0.1962  0.4652 -0.3394
 9036PW       W32042   1.442   8.920  11.821 -0.1130  0.1525 -0.1281
 9036PW      WP32043   1.563   8.947  11.886 -0.3133 -0.4579  0.5712
 9036PW      WM32044   1.305   8.895  11.803 -0.0063 -0.5939 -0.0514
 9037PW       W32045   2.011   4.962  10.978 -0.2973  0.1840 -0.0846
 9037PW      WP32046   2.144   4.966  11.020 -0.2593  0.4222 -0.2222
 9037PW      WM32047   1.917   5.061  10.947 -0.5465 -0.1325 -0.3904
 9038PW       W32048   8.641   2.083  11.829  0.1961  0.1679 -0.0304
 9038PW      WP32049   8.601   2.217  11.846 -0.1835 -0.0026  0.5512
 9038PW      WM32050   8.557   2.058  11.938  0.1550 -0.2525 -0.1524
 9039PW       W32051   8.386  11.678   1.179  0.6947 -0.5748 -0.0186
 9039PW      WP32052   8.431  11.774   1.271 -0.1890  0.0244 -0.1482
 9039PW      WM32053   8.442  11.669   1.051 -0.0562 -0.1569 -0.4085
 9040PW       W32054   6.534   6.933   3.192  0.1992 -0.1673 -0.2597
 9040PW      WP32055   6.513   6.916   3.054 -0.3298  0.2133 -0.2421
 9040PW      WM32056   6.565   7.068   3.214  0.0334 -0.1858  0.1330
 9041PW       W32057   9.080   2.842   5.130 -0.0977 -0.1183 -0.0944
 9041PW      WP32058   9.036   2.944   5.215  0.1644 -0.4224  0.4429
 9041PW      WM32059   9.156   2.783   5.233  0.1315  0.1605 -0.0955
 9042PW       W32060   5.525   0.581   9.930 -0.1161  0.2922  0.0342
 9042PW      WP32061   5.558   0.464   9.861 -0.1180  0.2050  0.1780
 9042PW      WM32062   5.518   0.669  10.039 -0.3994 -0.0292  0.2846
 9043PW       W32063   2.144   5.895   2.888 -0.0586  0.1391 -0.0198
 9043PW      WP32064   2.174   5.831   3.009  1.1547  0.1110 -0.2724
 9043PW      WM32065   2.005   5.879   2.892 -0.0289 -0.1096  0.7605
 9044PW       W32066   2.873   1.698  12.231 -0.0330  0.1424 -0.2177
 9044PW      WP32067   3.003   1.743  12.255  0.0202 -0.1341  0.0474
 9044PW      WM32068   2.838   1.562  12.227  0.1976  0.0366  0.5532
 9045PW       W32069  11.518   7.595   3.064  0.0002 -0.2560 -0.2811
 9045PW      WP32070  11.480   7.590   2.929 -0.1583 -0.8612 -0.2297
 9045PW      WM32071  11.581   7.687   2.980 -0.0658 -0.0383 -0.0967
 9046PW       W32072   1.814   2.904  12.640  0.1862  0.0175 -0.0652
 9046PW      WP32073   1.804   2.895  12.501 -0.2116  0.0661 -0.0474
 9046PW      WM32074   1.732   3.003  12.697  0.1420 -0.0459 -0.0174
 9047PW       W32075   1.452   2.743   4.547  0.0717 -0.2916 -0.0500
 9047PW      WP32076   1.339   2.728   4.466 -0.0799 -0.4032  0.1758
 9047PW      WM32077   1.442   2.839   4.649 -0.5651  0.0918 -0.4467
 9048PW       W32078   5.388   2.148   4.126 -0.1683  0.1484  0.6194
 9048PW      WP32079   5.256   2.115   4.159 -0.1857 -0.3580  0.1154
 9048PW      WM32080   5.439   2.248   4.210 -0.4148  0.2890  0.6071
 9049PW       W32081   6.559  10.294  10.398 -0.2402 -0.1326 -0.2546
 9049PW      WP32082   6.627  10.399  10.461  0.3820 -0.2755 -0.6436
 9049PW      WM32083   6.530  10.160  10.371  0.2912 -0.3761  0.2489
 9050PW       W32084   8.674  10.771   4.807 -0.0673  0.3306 -0.1293
 9050PW      WP32085   8.609  10.889   4.845 -0.2559  0.2902 -0.3140
 9050PW      WM32086   8.794  10.714   4.851 -0.2185 -0.2543 -0.4194
 9051PW       W32087   6.452  11.812   0.593  0.1936  0.0869 -0.3655
 9051PW      WP32088   6.434  11.949   0.615  0.1001 -0.0436  0.5676
 9051PW      WM32089   6.346  11.747   0.529  0.1552 -0.1127 -0.1073
 9052PW       W32090   0.080   1.631   0.146 -0.0976 -0.0425  0.1129
 9052PW      WP32091   0.079   1.739   0.058  0.2693  0.0472  0.2106
 9052PW      WM32092   0.096   1.579   0.276  0.0899  0.2916  0.2295
 9053PW       W32093  10.373   0.469   4.734 -0.0184 -0.4233  0.0968
 9053PW      WP32094  10.458   0.421   4.634 -0.3000 -0.1084 -0.3154
 9053PW      WM32095  10.254   0.398   4.714 -0.0754 -0.2408 -0.2635
 9054PW       W32096   3.524   2.099  11.086  0.4378 -0.5721 -0.1586
 9054PW      WP32097   3.598   2.160  10.984  0.4566 -0.1705  0.0816
 9054PW      WM32098   3.606   2.083  11.199 -0.1092 -0.5798  0.2611
 9055PW       W32099   9.897   4.106   0.219  0.0086  0.1695  0.1776
 9055PW      WP32100   9.965   4.149   0.334  0.5357  0.0008 -0.0542
 9055PW      WM32101   9.828   4.228   0.216 -0.4929 -0.0871  0.5276
 9056PW       W32102   8.605  11.189  10.457  0.5043 -0.0879  0.4312
 9056PW      WP32103   8.676  11.214  10.576  0.4586 -0.3272  0.5121
 9056PW      WM32104   8.589  11.053  10.428 -0.3903  0.1379 -0.3895
 9057PW       W32105   7.191  11.767  13.046  0.1635  0.2426  0.3137
 9057PW      WP32106   7.181  11.866  13.144  0.1039  0.0362  0.5208
 9057PW      WM32107   7.197  11.875  12.957  0.0659  0.3324  0.4159
 9058PW       W32108   7.904   3.691   2.362 -0.1137  0.2167  0.4103
 9058PW      WP32109   7.908   3.568   2.429 -0.2366 -0.0520 -0.0483
 9058PW      WM32110   7.979   3.667   2.246 -0.7013  0.4945 -0.0580
 9059PW       W32111   0.215   1.574  13.023 -0.1296 -0.4574  0.2068
 9059PW      WP32112   0.208   1.498  12.905 -0.0669 -0.2325  0.0540
 9059PW      WM32113   0.117   1.484  13.066 -0.1364 -0.3892  0.3366
 9060PW       W32114  11.229   7.680   9.254 -0.2845 -0.2854 -0.1631
 9060PW      WP32115  11.365   7.674   9.289 -0.1151  0.3556 -0.6167
 9060PW      WM32116  11.151   7.571   9.293  0.4655 -0.6719  0.3792
 9061PW       W32117  11.502   2.446   4.015  0.1947  0.6180  0.5009
 9061PW      WP32118  11.632   2.406   4.045  0.2271  0.2612 -0.0487
 9061PW      WM32119  11.432   2.401   4.128  0.0235  0.2309  0.2537
 9062PW       W32120   2.687   3.265   0.621  0.0437 -0.0019  0.0021
 9062PW      WP32121   2.591   3.188   0.554  0.0896  0.0804 -0.1607
 9062PW      WM32122   2.712   3.281   0.484  0.6636  0.1865  0.1199
 9063PW       W32123   5.478   5.226   4.645  0.0558  0.0640  0.1267
 9063PW      WP32124   5.365   5.270   4.574  0.0639  0.3321  0.2756
 9063PW      WM32125   5.456   5.353   4.589 -0.0385 -0.1050 -0.2363
 9064PW       W32126   3.259   7.105   1.181 -0.1024  0.2018 -0.0245
 9064PW      WP32127   3.124   7.096   1.218 -0.1156  0.9736  0.1969
 9064PW      WM32128   3.144   7.164   1.129 -0.1720  0.4120  0.3457
 9065PW       W32129   4.711   7.746  11.830 -0.4538 -0.2296 -0.1642
 9065PW      WP32130   4.741   7.701  11.701 -0.4418  0.1524 -0.3004
 9065PW      WM32131   4.727   7.607  11.839  0.4715 -0.1487 -0.1620
 9066PW       W32132   8.432   0.730  12.460 -0.1407  0.0937 -0.0671
 9066PW      WP32133   8.404   0.761  12.594  0.0491 -0.1186  0.0243
 9066PW      WM32134   8.362   0.613  12.493  0.0315 -0.1528 -0.5367
 9067PW       W32135   0.278  10.070   9.780  0.3870 -0.2801  0.1871
 9067PW      WP32136   0.364  10.057   9.671  0.0108  0.0174 -0.1619
 9067PW      WM32137   0.154  10.063   9.845  0.3593 -0.4093  0.1207
 9068PW       W32138   9.688   0.207   3.552 -0.2919 -0.1002  0.1609
 9068PW      WP32139   9.741   0.306   3.468 -0.6201 -0.4654 -0.5175
 9068PW      WM32140   9.803   0.164   3.620 -0.0223  0.2233 -0.0708
 9069PW       W32141   2.663   5.975   2.939  0.4208 -0.4455  0.2334
 9069PW      WP32142   2.596   5.853   2.956  0.0199 -0.2222  0.3227
 9069PW      WM32143   2.662   6.083   3.029  0.1097 -0.1116 -0.1537
 9070PW       W32144   3.062   3.264   1.855 -0.3547  0.3690 -0.0199
 9070PW      WP32145   3.054   3.209   1.727 -0.0530  0.5063 -0.1023
 9070PW      WM32146   3.010   3.146   1.912  0.1534  0.3824  0.5230
 9071PW       W32147   4.395   2.999  11.425  0.0322 -0.0960 -0.0333
 9071PW      WP32148   4.267   2.944  11.429 -0.0111  0.0176  0.2641
 9071PW      WM32149   4.427   3.132  11.391  0.1721 -0.0704  0.1833
 9072PW       W32150   8.297   8.984   4.699  0.0277  0.3305 -0.2034
 9072PW      WP32151   8.379   8.893   4.632 -0.1357  0.0668 -0.0562
 9072PW      WM32152   8.278   9.036   4.571 -0.0841  0.1768 -0.2511
 9073PW       W32153  12.112   8.863   3.984 -0.0072 -0.1765  0.2773
 9073PW      WP32154  12.119   8.907   3.852  0.2859 -0.9026  0.0234
 9073PW      WM32155  12.093   9.001   3.991  0.7553 -0.0455  0.1720
 9074PW       W32156   3.750   4.122  13.345  0.3708  0.1041 -0.0725
 9074PW      WP32157   3.873   4.144  13.282  0.3054  0.3031 -0.1336
 9074PW      WM32158   3.778   4.120  13.208 -0.3704  0.2016 -0.2437
 9075PW       W32159   0.939   1.953   3.453  0.2379 -0.1101 -0.0421
 9075PW      WP32160   0.943   1.816   3.427 -0.6446 -0.2354  0.3051
 9075PW      WM32161   0.824   1.957   3.374 -0.0164  0.2752  0.3254
 9076PW       W32162   4.774   9.898  12.916  0.1945  0.3589 -0.2919
 9076PW      WP32163   4.781   9.961  12.791 -0.1654  0.5689 -0.2143
 9076PW      WM32164   4.647   9.922  12.971  0.1216  0.0142 -0.2997
 9077PW       W32165  10.825   2.777  12.548  0.1776  0.0945 -0.3175
 9077PW      WP32166  10.732   2.680  12.509  0.0260 -0.0810  0.4028
 9077PW      WM32167  10.860   2.665  12.624 -0.5610  0.3212  0.4258
 9078PW       W32168  10.374   5.161   9.115 -0.2750 -0.4452  0.6094
 9078PW      WP32169  10.432   5.067   9.031 -0.3169  0.1391 -0.1237
 9078PW      WM32170  10.319   5.120   8.993  0.2812 -0.4284  0.3371
 9079PW       W32171   6.858   7.876   0.831 -0.0420  0.1054  0.0356
 9079PW      WP32172   6.801   7.756   0.877  0.2749  0.1036  0.4604
 9079PW      WM32173   6.918   7.912   0.952  0.1719  0.2324 -0.1058
 9080PW       W32174   4.447   3.819   2.320  0.0735 -0.0183  0.3373
 9080PW      WP32175   4.454   3.782   2.455 -0.0886  0.0830  0.3751
 9080PW      WM32176   4.471   3.942   2.257  0.5621 -0.1288  0.2920
 9081PW       W32177   4.990   7.422   8.693  0.3063  0.1057  0.2017
 9081PW      WP32178   4.998   7.561   8.713  0.2858  0.1693 -0.1808
 9081PW      WM32179   4.949   7.301   8.749  0.0234 -0.0434 -0.2926
 9082PW       W32180   9.595   1.623   3.310  0.0470  0.2982  0.0446
 9082PW      WP32181   9.613   1.580   3.178  0.2171  0.2618  0.0785
 9082PW      WM32182   9.649   1.539   3.409  0.2741  0.2297 -0.1313
 9083PW       W32183   6.001  11.517   8.122 -0.0059 -0.0920 -0.0804
 9083PW      WP32184   5.957  11.642   8.169 -0.0884 -0.2188  0.1846
 9083PW      WM32185   5.924  11.527   8.239  0.0205  0.2045 -0.0842
 9084PW       W32186  11.091   4.880   4.398 -0.3098 -0.3732 -0.3470
 9084PW      WP32187  11.026   4.851   4.519 -0.5589 -0.3399 -0.4683
 9084PW      WM32188  11.210   4.933   4.451 -0.2966 -0.6604 -0.0737
 9085PW       W32189   1.966   1.943   1.808  0.1015  0.1270 -0.4407
 9085PW      WP32190   1.947   1.807   1.779  0.4252 -0.0323  0.0234
 9085PW      WM32191   1.979   2.082   1.806  0.1176  0.1263 -0.3987
 9086PW       W32192  11.884   8.649   9.299 -0.1954  0.1897 -0.1368
 9086PW      WP32193  11.821   8.750   9.225 -0.3963  0.3757  0.2732
 9086PW      WM32194  11.949   8.547   9.228 -0.6427 -0.4653  0.3337
 9087PW       W32195   9.354   3.880   8.688  0.5461  0.1369 -0.1925
 9087PW      WP32196   9.408   3.993   8.750  0.2724  0.4152 -0.4414
 9087PW      WM32197   9.263   3.973   8.739  0.3416  0.2254 -0.6859
 9088PW       W32198   9.893   3.150  11.540  0.0398  0.2991  0.1080
 9088PW      WP32199   9.891   3.218  11.663  0.0664  0.6716 -0.0908
 9088PW      WM32200   9.991   3.145  11.441 -0.2739  0.1232 -0.2048
 9089PW       W32201   6.668   8.014  12.330 -0.2930 -0.2928 -0.0563
 9089PW      WP32202   6.706   8.091  12.441  0.3863 -0.4763 -0.1402
 9089PW      WM32203   6.744   7.898  12.313 -0.2963 -0.2391 -0.4778
 9090PW       W32204  11.245   4.381   2.642 -0.0040  0.0432  0.1061
 9090PW      WP32205  11.175   4.430   2.531  0.0805  0.0499  0.0549
 9090PW      WM32206  11.148   4.360   2.740 -0.4709 -0.1498 -0.3741
 9091PW       W32207   6.773   3.810  11.878  0.3513 -0.7166 -0.0976
 9091PW      WP32208   6.706   3.755  11.987  0.1178  0.1623  0.2505
 9091PW      WM32209   6.681   3.900  11.934  0.6648 -0.5867  0.2289
 9092PW       W32210  10.175   0.182  12.218 -0.3130 -0.0660 -0.0909
 9092PW      WP32211  10.238   0.171  12.093 -0.2293  0.4184 -0.1040
 9092PW      WM32212  10.242   0.097  12.307 -0.4145 -0.3116 -0.2434
 9093PW       W32213  10.267   5.245   0.689  0.1637 -0.3014 -0.2812
 9093PW      WP32214  10.209   5.213   0.812  0.6113  0.2236  0.0888
 9093PW      WM32215  10.397   5.297   0.682 -0.0504  0.3555  0.1187
 9094PW       W32216   4.305   1.958   0.893 -0.0872  0.4326 -0.0579
 9094PW      WP32217   4.217   1.976   0.786  0.0503  0.0386 -0.2454
 9094PW      WM32218   4.205   1.876   0.946  0.0712  0.2436 -0.0476
 9095PW       W32219   9.955   9.008   4.348 -0.3500  0.2123 -0.7439
 9095PW      WP32220   9.940   8.869   4.346  0.0439  0.1252  0.1132
 9095PW      WM32221   9.939   9.140   4.303 -0.0268  0.4536 -0.2053
 9096PW       W32222   4.747   4.292  13.151 -0.1312 -0.4392 -0.2141
 9096PW      WP32223   4.816   4.320  13.032 -0.4251  0.3388 -0.2344
 9096PW      WM32224   4.628   4.320  13.221  0.1238 -0.2658  0.1652
 9097PW       W32225   0.245  11.612   0.839 -0.2590 -0.1464 -0.2707
 9097PW      WP32226   0.149  11.519   0.882 -0.4569  0.1073 -0.1482
 9097PW      WM32227   0.358  11.568   0.770 -0.1819  0.1991 -0.3772
 9098PW       W32228  10.789   1.422   2.935  0.1419 -0.0422 -0.4976
 9098PW      WP32229  10.928   1.423   2.925  0.1996 -0.1615  0.1025
 9098PW      WM32230  10.777   1.560   2.952  0.4067  0.0283 -0.8366
 9099PW       W32231   2.319   2.347   2.595  0.2680 -0.2128 -0.1213
 9099PW      WP32232   2.211   2.349   2.507  0.0653  0.5584  0.1067
 9099PW      WM32233   2.276   2.278   2.709 -0.4210  0.1985 -0.1089
 9100PW       W32234   6.678   2.706  10.274 -0.4886  0.2926  0.3129
 9100PW      WP32235   6.633   2.811  10.194 -0.5456  0.0959  0.0805
 9100PW      WM32236   6.717   2.657  10.149  0.0131  0.2522  0.4742
 9101PW       W32237   4.386   7.187  13.325 -0.0826 -0.0849 -0.0925
 9101PW      WP32238   4.520   7.192  13.363 -0.2746  0.1911  0.6397
 9101PW      WM32239   4.362   7.062  13.383  0.1302 -0.0403  0.0997
 9102PW       W32240  11.894   7.736   2.578 -0.1926 -0.1508  1.0076
 9102PW      WP32241  11.831   7.858   2.605 -0.1183  0.1292  0.0877
 9102PW      WM32242  11.882   7.602   2.538  0.3960 -0.0204  0.2911
 9103PW       W32243   0.115   2.562   0.066 -0.3535 -0.2745  0.0301
 9103PW      WP32244   0.132   2.700   0.081 -0.1430 -0.2748 -0.1691
 9103PW      WM32245   0.129   2.521   0.199 -0.1012 -0.2955  0.0009
 9104PW       W32246   9.564   8.078   4.796 -0.1708 -0.1362 -0.0357
 9104PW      WP32247   9.428   8.093   4.765 -0.1322  0.5482  0.0488
 9104PW      WM32248   9.672   7.998   4.757  0.0726  0.2331 -0.1465
 9105PW       W32249   5.458   3.918  11.303 -0.0731  0.1015 -0.3484
 9105PW      WP32250   5.574   3.993  11.326  0.3790 -0.5666 -0.3131
 9105PW      WM32251   5.349   3.836  11.271 -0.1871  0.1514 -0.0955
 9106PW       W32252  10.160   5.341   2.256 -0.0208 -0.1698  0.2040
 9106PW      WP32253  10.282   5.405   2.230 -0.2350 -0.0988 -0.8931
 9106PW      WM32254  10.098   5.337   2.381 -0.2722 -0.5708  0.0769
 9107PW       W32255   1.024   1.326  10.288 -0.2308 -0.5466  0.0262
 9107PW      WP32256   0.941   1.410  10.213  0.1137  0.0764  0.3037
 9107PW      WM32257   0.890   1.292  10.265 -0.2824 -0.4330  0.1544
 9108PW       W32258   8.593  10.753   1.583  0.1826 -0.2578 -0.1812
 9108PW      WP32259   8.672  10.743   1.468 -0.3614 -0.0739 -0.5939
 9108PW      WM32260   8.560  10.884   1.623 -0.2181 -0.3399 -0.2270
 9109PW       W32261  11.457   0.181  12.609 -0.4693 -0.1249 -0.1873
 9109PW      WP32262  11.360   0.271  12.561  0.0413  0.3491 -0.3858
 9109PW      WM32263  11.491   0.052  12.567 -0.0032 -0.0279 -0.1295
 9110PW       W32264   0.062   2.042   5.298 -0.2415 -0.1638 -0.5081
 9110PW      WP32265   0.139   2.064   5.184  0.3393 -0.1663 -0.1370
 9110PW      WM32266  -0.022   1.936   5.335 -0.1865 -0.0484 -0.0190
 9111PW       W32267   7.040   9.307   8.719 -0.1442 -0.1220  0.0092
 9111PW      WP32268   6.981   9.412   8.648 -0.1068  0.1644  0.3853
 9111PW      WM32269   7.161   9.247   8.757  0.1177  0.3638 -0.0184
 9112PW       W32270   1.998   4.623   4.328 -0.1322  0.0067 -0.6083
 9112PW      WP32271   2.114   4.649   4.254  0.5143 -0.0360  0.3057
 9112PW      WM32272   1.884   4.554   4.373 -0.0858 -0.0095 -0.5156
 9113PW       W32273   6.492   9.869   3.828  0.0551  0.2285  0.1990
 9113PW      WP32274   6.377   9.804   3.779  0.4555 -0.3224 -0.0685
 9113PW      WM32275   6.426   9.880   3.951 -0.1854  0.2071  0.0751
 9114PW       W32276   0.799   9.066  13.030 -0.1820  0.3692  0.1217
 9114PW      WP32277   0.773   8.976  12.925  0.2797  0.3921 -0.0225
 9114PW      WM32278   0.872   9.001  13.130  0.0686  0.5166  0.0387
 9115PW       W32279   0.706   2.704   0.731  0.2740  0.1651  0.2437
 9115PW      WP32280   0.637   2.796   0.651  0.0738  0.0926  0.3277
 9115PW      WM32281   0.750   2.771   0.617  0.0414  0.0213  0.0657
 9116PW       W32282   5.486  11.831   2.157  0.0380  0.3022 -0.2038
 9116PW      WP32283   5.466  11.738   2.054 -0.2072 -0.3412  0.3797
 9116PW      WM32284   5.618  11.857   2.195 -0.0904  0.0501  0.5085
 9117PW       W32285   1.263   9.696   1.768 -0.0652  0.0960  0.3279
 9117PW      WP32286   1.391   9.675   1.715 -0.4021 -0.1836 -0.4519
 9117PW      WM32287   1.323   9.698   1.894 -0.1244 -0.0338  0.3591
 9118PW       W32288   5.524   4.409   9.463 -0.2846  0.5026 -0.3162
 9118PW      WP32289   5.405   4.363   9.520  0.1897 -0.1677  0.2138
 9118PW      WM32290   5.497   4.412   9.326  0.0613 -0.3217 -0.4278
 9119PW       W32291   2.356   9.024   1.165 -0.3268  0.2756  0.2468
 9119PW      WP32292   2.348   9.150   1.104  0.4590  0.3142  0.1663
 9119PW      WM32293   2.336   9.121   1.264 -0.3590  0.0000  0.5163
 9120PW       W32294   2.492  11.113  11.596 -0.0616 -0.3108 -0.0535
 9120PW      WP32295   2.515  11.072  11.464 -0.1596 -0.3589 -0.0561
 9120PW      WM32296   2.610  11.106  11.671 -0.1121 -0.6210  0.0057
 9121PW       W32297   3.308   3.074   3.971  0.3450  0.1680 -0.1422
 9121PW      WP32298   3.427   3.004   3.949  0.3422  0.0050  0.3234
 9121PW      WM32299   3.306   3.213   3.990 -0.1053  0.2281 -0.5273
 9122PW       W32300   2.734   2.025   4.751  0.5075 -0.1598 -0.2311
 9122PW      WP32301   2.709   2.089   4.873  0.1821 -0.5062 -0.1080
 9122PW      WM32302   2.790   2.069   4.630  0.3943  0.4053 -0.0945
 9123PW       W32303  10.882   4.393   5.230  0.0618 -0.3588 -0.0290
 9123PW      WP32304  10.798   4.395   5.341 -0.0415  0.2236 -0.1028
 9123PW      WM32305  10.989   4.367   5.317 -0.0244 -0.2195  0.1198
 9124PW       W32306   5.757   7.788  12.149  0.1954 -0.2781 -0.1183
 9124PW      WP32307   5.761   7.783  12.010  0.1218 -0.1127 -0.1268
 9124PW      WM32308   5.641   7.718  12.186  0.0944 -0.1019 -0.0971
 9125PW       W32309   4.770   1.018   8.439  0.2189  0.0289  0.0252
 9125PW      WP32310   4.688   1.124   8.480  0.1960  0.0193  0.0039
 9125PW      WM32311   4.675   0.928   8.391  0.0466  0.1111  0.2021
 9126PW       W32312   1.644   1.368   8.960  0.0490 -0.2212  0.0971
 9126PW      WP32313   1.754   1.364   8.873 -0.2889 -0.1827 -0.3466
 9126PW      WM32314   1.677   1.483   9.033 -0.0633 -0.2616  0.2137
 9127PW       W32315   1.402   1.540   1.269 -0.1582  0.1031  0.0242
 9127PW      WP32316   1.412   1.564   1.407 -0.3055 -0.3840  0.1299
 9127PW      WM32317   1.501   1.488   1.353  0.0950 -0.1197 -0.3927
 9128PW       W32318   9.942   4.188   3.104  0.2716 -0.6145 -0.2989
 9128PW      WP32319  10.015   4.159   3.220  0.3333  0.4921 -0.0023
 9128PW      WM32320  10.031   4.279   3.044 -0.1288  0.0186  0.0074
 9129PW       W32321   4.845   2.286  12.992  0.0617  0.1108  0.0308
 9129PW      WP32322   4.831   2.311  12.856  0.1033 -0.3915 -0.0774
 9129PW      WM32323   4.795   2.228  13.110 -0.4047 -0.3382 -0.3671
 9130PW       W32324   5.215   2.930   1.444  0.0256  0.1762 -0.4344
 9130PW      WP32325   5.138   3.041   1.480  0.2396  0.1616  0.1121
 9130PW      WM32326   5.309   3.033   1.442  0.2121  0.0103 -0.3831
 9131PW       W32327   0.273   3.613   4.113 -0.5457  0.0377  0.0398
 9131PW      WP32328   0.345   3.612   4.233  0.0312  1.0677 -0.2294
 9131PW      WM32329   0.227   3.481   4.120 -0.1239 -0.1073  0.2548
 9132PW       W32330   7.339  10.482   8.522  0.1543  0.6759  0.3667
 9132PW      WP32331   7.393  10.589   8.449  0.3820  0.2376 -0.1385
 9132PW      WM32332   7.252  10.563   8.449 -0.3165 -0.0736  0.0416
 9133PW       W32333   3.892   5.450   0.361  0.3840  0.3375  0.2508
 9133PW      WP32334   3.971   5.533   0.281  0.2763  0.0259 -0.2006
 9133PW      WM32335   3.994   5.456   0.456  0.2730 -0.2085  0.4210
 9134PW       W32336   6.719   4.073   4.222 -0.1390 -0.0124  0.2001
 9134PW      WP32337   6.818   4.171   4.226 -0.4491  0.3214  0.0414
 9134PW      WM32338   6.795   3.961   4.187  0.1450  0.2713 -0.1287
 9135PW       W32339   4.658   6.253  12.867  0.2298  0.0611  0.0747
 9135PW      WP32340   4.590   6.351  12.794 -0.2638 -0.0158  0.4039
 9135PW      WM32341   4.748   6.156  12.821  0.2291  0.0927  0.0065
 9136PW       W32342   4.464  12.009   3.259 -0.1849  0.3771 -0.0940
 9136PW      WP32343   4.599  12.014   3.293 -0.0191 -0.3107 -0.5481
 9136PW      WM32344   4.459  11.981   3.396  0.3668  0.0240 -0.1317
 9137PW       W32345  10.641  11.093   3.294  0.1901 -0.0322  0.2828
 9137PW      WP32346  10.675  11.162   3.411  0.1280 -0.0126  0.2892
 9137PW      WM32347  10.529  11.011   3.309  0.2620 -0.1814  0.0240
 9138PW       W32348   3.269   6.272  11.078 -0.0760 -0.4139  0.1526
 9138PW      WP32349   3.165   6.224  11.159 -0.2989 -0.4296 -0.1338
 9138PW      WM32350   3.312   6.186  10.977 -0.5242 -0.0141 -0.4178
 9139PW       W32351   6.846   1.070   0.827 -0.2809 -0.2038  0.1539
 9139PW      WP32352   6.743   1.064   0.731 -0.3711 -0.6100  0.2653
 9139PW      WM32353   6.975   1.016   0.835  0.1093  0.6224  0.0086
 9140PW       W32354   7.057   6.727   1.339  0.0474 -0.4164  0.1104
 9140PW      WP32355   7.153   6.813   1.394 -0.3588  0.1359 -0.0004
 9140PW      WM32356   7.137   6.627   1.396  0.2833 -0.3001 -0.0084
 9141PW       W32357   0.442  10.095  12.021  0.0044 -0.3062 -0.1796
 9141PW      WP32358   0.402  10.188  12.118 -0.2237 -0.5438 -0.0402
 9141PW      WM32359   0.572  10.069  12.068  0.1812  0.6529 -0.0279
 9142PW       W32360  11.596   4.181   4.028 -0.3988 -0.3067  0.2505
 9142PW      WP32361  11.651   4.263   4.127  0.1445  0.1934 -0.4117
 9142PW      WM32362  11.616   4.271   4.134  0.5541  0.0339 -0.1605
 9143PW       W32363   9.675  11.607  12.173  0.1205  0.0513 -0.1941
 9143PW      WP32364   9.633  11.540  12.289  0.1675  0.1445 -0.1223
 9143PW      WM32365   9.552  11.648  12.121  0.0685 -0.2830 -0.3510
 9144PW       W32366  11.049   6.470   1.087 -0.0293  0.1884 -0.4617
 9144PW      WP32367  11.123   6.588   1.100 -0.4126  0.3790  0.2474
 9144PW      WM32368  11.044   6.521   1.217  0.1470 -0.6972 -0.0699
 9145PW       W32369   2.219   8.689   4.465 -0.0348  0.2408 -0.2315
 9145PW      WP32370   2.138   8.576   4.446  0.2902  0.0253 -0.3907
 9145PW      WM32371   2.162   8.769   4.564  0.4417  0.1731  0.1093
 9146PW       W32372   6.485   0.692   1.136 -0.3582  0.5697  0.0239
 9146PW      WP32373   6.463   0.703   1.274 -0.5309  0.2778  0.0232
 9146PW      WM32374   6.623   0.715   1.132 -0.1632 -0.3883  0.0929
 9147PW       W32375   7.436   3.241   0.307  0.1013  0.1265 -0.6368
 9147PW      WP32376   7.546   3.165   0.349 -0.1775  0.0151 -0.0494
 9147PW      WM32377   7.376   3.206   0.428  0.5771  0.0750 -0.4016
 9148PW       W32378   7.010   4.576   2.253  0.4122  0.3034  0.2096
 9148PW      WP32379   6.926   4.504   2.340  0.3269  0.2760  0.1062
 9148PW      WM32380   6.944   4.699   2.248  0.3823  0.2823  0.0577
 9149PW       W32381   7.535   8.934  13.015  0.0111  0.0973 -0.2237
 9149PW      WP32382   7.538   9.069  13.053  0.1518  0.0266  0.0311
 9149PW      WM32383   7.672   8.949  12.992 -0.0039 -0.1671 -0.5156
 9150PW       W32384   0.660   4.334   9.525  0.0694 -0.4959 -0.0761
 9150PW      WP32385   0.644   4.358   9.662  0.0271  0.1543 -0.1754
 9150PW      WM32386   0.755   4.436   9.507 -0.4346  0.0405  0.1217
 9151PW       W32387   1.138   5.219   0.790  0.1923 -0.1674 -0.1089
 9151PW      WP32388   1.031   5.168   0.864 -0.0233 -0.0853 -0.3554
 9151PW      WM32389   1.218   5.171   0.895  0.3108  0.0528 -0.0943
 9152PW       W32390   0.115  10.775   9.195  0.1126  0.1568 -0.1646
 9152PW      WP32391   0.102  10.747   9.059  0.6451 -0.1494 -0.1675
 9152PW      WM32392   0.224  10.712   9.256 -0.0436 -0.0964 -0.1377
 9153PW       W32393   6.653   8.346   3.383 -0.5699 -0.0880 -0.0101
 9153PW      WP32394   6.764   8.353   3.467 -0.7544  0.0215  0.2291
 9153PW      WM32395   6.662   8.392   3.515 -0.3197  0.2063 -0.1223
 9154PW       W32396   1.386   2.681  11.915 -0.0281 -0.5560  0.4335
 9154PW      WP32397   1.486   2.584  11.925  0.1703 -0.3781  0.2255
 9154PW      WM32398   1.389   2.815  11.956 -0.0154 -0.3608 -0.1502
 9155PW       W32399   8.270   3.460   0.395 -0.2982 -0.6735  0.1851
 9155PW      WP32400   8.286   3.518   0.521 -0.4427  0.0346 -0.1011
 9155PW      WM32401   8.136   3.458   0.355 -0.6070 -0.1495  1.0426
 9156PW       W32402   0.736  10.996   0.497 -0.3774 -0.3913 -0.0384
 9156PW      WP32403   0.687  10.984   0.628 -0.3256  0.3818  0.0740
 9156PW      WM32404   0.811  10.994   0.379  0.1886 -0.2155  0.3012
 9157PW       W32405   1.726   8.195  13.340 -0.2924 -0.3216 -0.2209
 9157PW      WP32406   1.699   8.301  13.428  0.6914 -0.1174 -0.1067
 9157PW      WM32407   1.852   8.154  13.294 -0.0611  0.0671  0.0407
 9158PW       W32408   3.161   5.440  10.676 -0.2114  0.1230 -0.1894
 9158PW      WP32409   3.219   5.408  10.799 -0.3145 -0.2647 -0.2339
 9158PW      WM32410   3.206   5.568  10.711 -0.1030  0.1241 -0.3296
 9159PW       W32411   5.106  11.246  12.266  0.1234 -0.0773 -0.1327
 9159PW      WP32412   5.173  11.337  12.183 -0.0363 -0.0664 -0.2521
 9159PW      WM32413   5.023  11.191  12.167 -0.0891  0.1144 -0.0657
 9160PW       W32414   8.147   2.939   9.365 -0.3074  0.1682 -0.2970
 9160PW      WP32415   8.160   3.068   9.314 -0.0811  0.3582  0.2030
 9160PW      WM32416   8.052   2.968   9.464 -0.2255  0.0058 -0.1675
 9161PW       W32417  10.069   4.783  10.006 -0.0677  0.1298  0.2602
 9161PW      WP32418  10.208   4.764  10.009 -0.0899 -0.2589 -0.3621
 9161PW      WM32419  10.033   4.711  10.120  0.4498 -0.2856  0.1820
 9162PW       W32420   8.793   9.959  12.166  0.0850 -0.2229 -0.1124
 9162PW      WP32421   8.768   9.937  12.302  0.1445  0.0841 -0.0475
 9162PW      WM32422   8.829  10.086  12.213  0.4374 -0.5556  0.5919
 9163PW       W32423   2.061   8.585   8.224  0.1579  0.1434  0.1990
 9163PW      WP32424   1.978   8.495   8.157  0.0197  0.3896  0.0306
 9163PW      WM32425   2.026   8.580   8.089  0.0279 -0.2890  0.2431
 9164PW       W32426   2.442  10.645  13.283  0.0201  0.0605  0.1690
 9164PW      WP32427   2.576  10.625  13.318  0.0530 -0.2105 -0.0941
 9164PW      WM32428   2.363  10.578  13.189 -0.1413  0.3162  0.1176
 9165PW       W32429   7.115   5.769   0.378  0.1726  0.0852  0.0549
 9165PW      WP32430   7.086   5.650   0.310 -0.0919  0.1083  0.1232
 9165PW      WM32431   7.143   5.804   0.245  0.0090  0.0660  0.0141
 9166PW       W32432   9.359   2.246  12.669  0.1890  0.3994 -0.1140
 9166PW      WP32433   9.301   2.216  12.793 -0.1275  0.2573 -0.2896
 9166PW      WM32434   9.265   2.291  12.576 -0.0475  0.0298 -0.0645
 9167PW       W32435   0.529  11.163  10.097  0.3884 -0.3030  0.3484
 9167PW      WP32436   0.595  11.283  10.065  0.3562 -0.3470  0.1115
 9167PW      WM32437   0.406  11.104  10.129 -0.0698  0.2872 -0.1853
 9168PW       W32438   6.861   6.282   1.499  0.2273 -0.3707 -0.1084
 9168PW      WP32439   6.950   6.269   1.607  0.3060  0.4167 -0.0468
 9168PW      WM32440   6.991   6.230   1.492  0.4746  0.1436  0.2615
 9169PW       W32441   1.490   5.614   4.563 -0.2428  0.2604  0.4022
 9169PW      WP32442   1.412   5.532   4.645 -0.0889 -0.4279 -0.0923
 9169PW      WM32443   1.545   5.493   4.605  0.0274  0.2317 -0.0035
 9170PW       W32444  11.962  10.119  12.579  0.0471  0.4976  0.5876
 9170PW      WP32445  11.889  10.006  12.621 -0.0611  0.1105 -0.4924
 9170PW      WM32446  12.075  10.186  12.531  0.4009 -0.3052  0.2121
 9171PW       W32447   1.526   9.389   8.822 -0.0347 -0.0447 -0.3267
 9171PW      WP32448   1.414   9.347   8.895 -0.0508  0.0428 -0.3012
 9171PW      WM32449   1.542   9.258   8.774  0.5167 -0.0219 -0.2391
 9172PW       W32450   9.495   3.885  10.445  0.1852 -0.4723 -0.3959
 9172PW      WP32451   9.532   4.020  10.439 -0.5759 -0.2344 -0.2976
 9172PW      WM32452   9.442   3.759  10.420  0.1108 -0.5134 -0.0552
 9173PW       W32453   3.634   8.327  12.979 -0.0961  0.0537  0.1250
 9173PW      WP32454   3.505   8.332  12.925  0.0595 -0.3470 -0.3201
 9173PW      WM32455   3.651   8.221  12.889 -0.1611  0.1145  0.0399
 9174PW       W32456   8.319   8.602   3.470 -0.1201  0.1976 -0.0965
 9174PW      WP32457   8.371   8.732   3.476 -0.1652  0.2044  0.2519
 9174PW      WM32458   8.205   8.579   3.548  0.0448  0.2731  0.1733
 9175PW       W32459   7.391   0.583  13.083  0.3120 -0.1934  0.6968
 9175PW      WP32460   7.401   0.716  13.125 -0.1726  0.0724  0.0465
 9175PW      WM32461   7.267   0.645  13.069  0.3417 -0.1910  0.4186
 9176PW       W32462   1.040  10.436   1.535 -0.3130 -0.2644  0.0224
 9176PW      WP32463   1.083  10.353   1.639 -0.3022 -0.0972  0.1537
 9176PW      WM32464   0.953  10.538   1.493  0.2631  0.2416 -0.0010
 9177PW       W32465   1.853   7.060   0.855  0.2126  0.1469 -0.2628
 9177PW      WP32466   1.731   7.101   0.799  0.0073  0.0538  0.0956
 9177PW      WM32467   1.914   7.178   0.812  0.0635  0.3274  0.0011
 9178PW       W32468  11.124  11.615   8.233  0.0599 -0.1453 -0.1027
 9178PW      WP32469  11.193  11.569   8.346  0.1687  0.1601 -0.0424
 9178PW      WM32470  11.079  11.715   8.146  0.3887  0.0873 -0.0100
 9179PW       W32471   8.478   1.100   8.310 -0.0095 -0.0397 -0.2331
 9179PW      WP32472   8.563   0.998   8.355  0.4397  0.2683 -0.3523
 9179PW      WM32473   8.551   1.148   8.420 -0.1635 -0.1480 -0.0807
 9180PW       W32474   5.778  11.325  12.752  0.2739 -0.2269  0.1823
 9180PW      WP32475   5.826  11.411  12.652  0.2210  0.0447  0.3836
 9180PW      WM32476   5.638  11.338  12.751  0.3083  0.3903  0.5203
 9181PW       W32477  10.025   5.641   0.876  0.0728 -0.2096  0.1098
 9181PW      WP32478   9.983   5.725   0.772  0.2539 -0.0571  0.1573
 9181PW      WM32479   9.963   5.543   0.798  0.1475 -0.0971 -0.0961
 9182PW       W32480   3.830   3.870   4.921  0.1400  0.0691 -0.3238
 9182PW      WP32481   3.764   3.987   4.962 -0.4005 -0.3807  0.1821
 9182PW      WM32482   3.752   3.806   4.825  0.1665  0.1562 -0.4040
 9183PW       W32483   1.755   2.421  12.430  0.0856 -0.0254  0.4628
 9183PW      WP32484   1.790   2.312  12.350  0.4554  0.2597  0.2174
 9183PW      WM32485   1.705   2.403  12.559 -0.3961  0.0663  0.3002
 9184PW       W32486   8.850   5.647  11.959  0.1254 -0.1568  0.3210
 9184PW      WP32487   8.951   5.655  11.862 -0.2345  0.1000 -0.0462
 9184PW      WM32488   8.842   5.723  12.077  0.0824 -0.4962  0.5431
 9185PW       W32489   0.778   5.004  12.372 -0.4779  0.0703  0.2954
 9185PW      WP32490   0.821   5.123  12.312  0.5467 -0.5441 -0.3356
 9185PW      WM32491   0.828   4.882  12.325 -0.8769  0.1070 -0.2852
 9186PW       W32492   6.107   8.866   0.921 -0.6709 -0.0229 -0.1869
 9186PW      WP32493   6.193   8.809   1.015  0.0197  0.5434 -0.4343
 9186PW      WM32494   5.989   8.921   0.869 -0.3467  0.5204 -0.3859
 9187PW       W32495   5.206  12.089  10.112 -0.0460  0.0488  0.2980
 9187PW      WP32496   5.257  11.966  10.068 -0.0145  0.1377  0.0751
 9187PW      WM32497   5.258  12.211  10.159 -0.1611  0.1783  0.0990
 9188PW       W32498   7.891   3.402   3.774  0.1091  0.3854 -0.2397
 9188PW      WP32499   8.022   3.446   3.793  0.2054  0.2175 -0.4929
 9188PW      WM32500   7.776   3.340   3.825  0.4652  0.0071  0.1380
 9189PW       W32501   5.075   6.472   5.031 -0.1841  0.3765 -0.6381
 9189PW      WP32502   4.989   6.363   5.052  0.4369 -0.0205  0.1002
 9189PW      WM32503   5.131   6.375   4.947 -0.1728  0.0321 -0.2527
 9190PW       W32504   3.317   0.692   3.800  0.3342  0.3497  0.1643
 9190PW      WP32505   3.239   0.638   3.697  0.0627  0.2334  0.4233
 9190PW      WM32506   3.237   0.807   3.804  0.1726  0.2329  0.3818
 9191PW       W32507   4.628   5.555   4.239 -0.2027 -0.0240 -0.1540
 9191PW      WP32508   4.576   5.431   4.277  0.1989  0.0432  0.7538
 9191PW      WM32509   4.636   5.673   4.164  0.1857  0.0327 -0.0381
 9192PW       W32510   5.526   6.496  11.822 -0.1559 -0.1477 -0.6120
 9192PW      WP32511   5.401   6.461  11.874  0.0080 -0.0442 -0.1191
 9192PW      WM32512   5.512   6.481  11.961  0.0574 -0.4001 -0.6146
 9193PW       W32513   5.479   4.696   1.497 -0.2791 -0.4144 -0.0986
 9193PW      WP32514   5.599   4.637   1.541  0.0674  0.2850 -0.0481
 9193PW      WM32515   5.416   4.804   1.435  0.2735 -0.0922 -0.1299
 9194PW       W32516   3.976   2.629   8.232 -0.1224  0.0702  0.4624
 9194PW      WP32517   3.899   2.516   8.203 -0.1902  0.2368 -0.0432
 9194PW      WM32518   4.051   2.558   8.327  0.0832 -0.3590 -0.0004
 9195PW       W32519  11.226   7.667   1.811 -0.2723 -0.0834  0.1311
 9195PW      WP32520  11.195   7.735   1.930  0.1647  0.1508  0.1237
 9195PW      WM32521  11.265   7.795   1.771 -0.0520 -0.1433  0.1426
 9196PW       W32522   7.901   6.055   2.664  0.0634 -0.0021 -0.0291
 9196PW      WP32523   7.868   6.178   2.606  0.1609  0.1391  0.2094
 9196PW      WM32524   7.840   5.984   2.769 -0.0162 -0.1001 -0.1395
 9197PW       W32525   7.118   4.618  10.616  0.0323  0.2259 -0.4121
 9197PW      WP32526   7.237   4.602  10.688 -0.4616 -0.2150  0.3891
 9197PW      WM32527   7.124   4.578  10.482 -0.4236  0.2709 -0.4557
 9198PW       W32528   3.532   5.107   9.775 -0.5903  0.2042 -0.4733
 9198PW      WP32529   3.570   5.111   9.641  0.3567  0.6242 -0.2312
 9198PW      WM32530   3.486   5.162   9.895  0.2924  0.0883 -0.0458
 9199PW       W32531   7.310   0.142   0.710  0.6215  0.1327 -0.5776
 9199PW      WP32532   7.245   0.263   0.734  0.2412 -0.1926  0.2485
 9199PW      WM32533   7.300   0.010   0.666 -0.0463 -0.0658  0.0671
 9200PW       W32534   9.352   2.202   1.879 -0.6356  0.0783  0.0746
 9200PW      WP32535   9.333   2.075   1.823 -0.1280  0.0942 -0.1666
 9200PW      WM32536   9.343   2.193   2.018  0.2238  0.5271  0.1980
 9201PW       W32537  10.912  11.770   5.509  0.0009  0.2875 -0.0032
 9201PW      WP32538  11.050  11.781   5.528  0.0146  0.4268 -0.1677
 9201PW      WM32539  10.929  11.796   5.646  0.3863  0.2301 -0.0354
 9202PW       W32540   6.908   8.457   2.399 -0.3145 -0.1649  0.1284
 9202PW      WP32541   6.805   8.525   2.464 -0.5878 -0.3317 -0.1197
 9202PW      WM32542   6.955   8.389   2.512  0.1156 -0.1848 -0.0507
 9203PW       W32543   0.706   4.832   9.910  0.6051  0.0033  0.0857
 9203PW      WP32544   0.623   4.869   9.804  0.3091  0.6514  0.5156
 9203PW      WM32545   0.782   4.950   9.902  0.3329  0.1888  0.1620
 9204PW       W32546   5.169   0.092  12.367  0.2090  0.0567 -0.0362
 9204PW      WP32547   5.287   0.017  12.357  0.2365  0.0325  0.3853
 9204PW      WM32548   5.199   0.195  12.276 -0.3191  0.2391 -0.0233
 9205PW       W32549   5.400  10.226  11.849  0.2020 -0.4203  0.0764
 9205PW      WP32550   5.306  10.296  11.773  0.2542  0.5593  0.8173
 9205PW      WM32551   5.488  10.122  11.881  0.4478 -0.1727  0.2323
 9206PW       W32552   9.411   6.770   9.029  0.1027 -0.1156  0.0270
 9206PW      WP32553   9.410   6.901   8.981 -0.2906 -0.1454 -0.0678
 9206PW      WM32554   9.442   6.749   9.164 -0.1499  0.2159  0.1432
 9207PW       W32555   3.829  12.073   2.188 -0.1935  0.3121  0.0036
 9207PW      WP32556   3.963  12.052   2.154 -0.1117  0.0861  0.4279
 9207PW      WM32557   3.744  11.981   2.252  0.7247 -0.5661  0.0848
 9208PW       W32558   0.387  11.948   0.253 -0.1437 -0.1192 -0.0612
 9208PW      WP32559   0.285  12.008   0.179 -0.0448  0.0081 -0.0965
 9208PW      WM32560   0.473  12.049   0.299  0.3333 -0.2161 -0.6806
 9209PW       W32561   4.493   3.829   3.741  0.3881  0.4619 -0.2478
 9209PW      WP32562   4.491   3.968   3.728  0.4848  0.4842 -0.0367
 9209PW      WM32563   4.449   3.799   3.611 -0.3326  0.1673  0.0371
 9210PW       W32564  10.921   9.392   1.500 -0.2001  0.5738  0.4312
 9210PW      WP32565  10.834   9.373   1.392  0.1198  0.2041  0.2245
 9210PW      WM32566  11.006   9.459   1.412 -0.0686  0.1234  0.1995
 9211PW       W32567   9.629   3.579   2.946 -0.0470  0.3263 -0.1718
 9211PW      WP32568   9.597   3.714   2.965  0.1637  0.3551  0.0015
 9211PW      WM32569   9.755   3.534   2.988 -0.0798 -0.0232 -0.4211
 9212PW       W32570  10.912   1.756   2.491  0.2197  0.1400  0.2788
 9212PW      WP32571  10.989   1.738   2.376 -0.0957  0.0431  0.0750
 9212PW      WM32572  11.007   1.844   2.544  0.1954  0.1993  0.2251
 9213PW       W32573  10.035  10.966   8.930  0.2522 -0.0810 -0.0055
 9213PW      WP32574  10.078  10.834   8.948 -0.0987 -0.1762  0.1878
 9213PW      WM32575  10.111  11.079   8.960 -0.1947  0.2350 -0.0118
 9214PW       W32576   6.473   3.395   4.810  0.0250 -0.4335 -0.6199
 9214PW      WP32577   6.503   3.327   4.929 -0.1547  0.4147 -0.0412
 9214PW      WM32578   6.343   3.378   4.763 -0.1932  0.1187 -0.2713
 9215PW       W32579  11.358   3.730   0.505  0.0533  0.0252 -0.0050
 9215PW      WP32580  11.476   3.674   0.455  0.3358  0.0054  0.6363
 9215PW      WM32581  11.301   3.803   0.400  0.0863 -0.1518 -0.1500
 9216PW       W32582   5.472   1.276  11.121  0.0433 -0.2758 -0.2229
 9216PW      WP32583   5.411   1.154  11.150  0.2176 -0.3481 -0.1571
 9216PW      WM32584   5.612   1.273  11.116  0.0606  0.1388 -0.2002
 9217PW       W32585   9.117   5.776   9.951  0.0352 -0.1316 -0.0745
 9217PW      WP32586   9.097   5.846  10.071  0.0025 -0.0838 -0.1075
 9217PW      WM32587   9.220   5.870   9.931  0.4090 -0.4826  0.1334
 9218PW       W32588  12.095   7.024  11.430  0.0032  0.3738 -0.1159
 9218PW      WP32589  12.018   6.959  11.332  0.0664 -0.0367  0.0966
 9218PW      WM32590  12.147   7.019  11.300  0.0512 -0.2208 -0.0885
 9219PW       W32591   1.420   7.688   2.255  0.0923 -0.0851  0.0638
 9219PW      WP32592   1.538   7.656   2.187  0.2396  0.1611  0.1962
 9219PW      WM32593   1.504   7.741   2.353  0.2852 -0.0649 -0.1091
 9220PW       W32594   3.674   5.699   4.432  0.1034 -0.1771 -0.2391
 9220PW      WP32595   3.558   5.707   4.353  0.2352 -0.2978 -0.4475
 9220PW      WM32596   3.657   5.670   4.568  0.2555  0.0457 -0.1687
 9221PW       W32597   0.668   3.041   1.199  0.0386  0.1065 -0.0888
 9221PW      WP32598   0.542   2.983   1.212 -0.0247  0.1670 -0.3944
 9221PW      WM32599   0.753   3.114   1.284 -0.6146  0.3042  0.4391
 9222PW       W32600  10.065   1.438   2.425 -0.1386 -0.0298  0.0437
 9222PW      WP32601  10.166   1.431   2.328 -0.2164  0.5185 -0.0895
 9222PW      WM32602   9.938   1.486   2.392 -0.1641  0.0341  0.2311
 9223PW       W32603   2.625   4.529  10.876  0.1283  0.1833  0.0605
 9223PW      WP32604   2.663   4.440  10.978 -0.4379 -0.0305  0.1044
 9223PW      WM32605   2.605   4.447  10.764  0.3053  0.3501 -0.0947
 9224PW       W32606   4.085  11.045   1.849  0.4667 -0.5099  0.6297
 9224PW      WP32607   4.190  11.138   1.853 -0.2894  0.4128  0.7862
 9224PW      WM32608   4.173  10.968   1.772  0.1518 -0.0503 -0.2588
 9225PW       W32609   4.342   0.052   3.661 -0.3916  0.1794  0.2133
 9225PW      WP32610   4.339  -0.053   3.569  0.1759  0.0413  0.3354
 9225PW      WM32611   4.398   0.143   3.752 -0.4912  0.5163 -0.0521
 9226PW       W32612   8.127   0.825  10.917 -0.1265  0.1256 -0.2451
 9226PW      WP32613   7.999   0.847  10.864 -0.3878  0.3189  0.4154
 9226PW      WM32614   8.257   0.825  10.970 -0.0045  0.3732 -0.5236
 9227PW       W32615   0.878   6.310  12.088  0.2779 -0.1273 -0.3757
 9227PW      WP32616   0.947   6.189  12.086  0.2606 -0.1450 -0.0968
 9227PW      WM32617   0.971   6.385  12.014  0.1675 -0.0769 -0.4647
 9228PW       W32618   7.312   2.317  11.231  0.2653 -0.0227 -0.1025
 9228PW      WP32619   7.174   2.308  11.208  0.2080  0.2296  0.1120
 9228PW      WM32620   7.283   2.454  11.238 -0.0286 -0.0900  0.1356
 9229PW       W32621   9.973   0.526   0.220  0.0440 -0.1300 -0.0616
 9229PW      WP32622  10.096   0.560   0.278  0.0469  0.9975 -0.5974
 9229PW      WM32623   9.868   0.612   0.186 -0.1614 -0.4015 -0.1332
 9230PW       W32624   6.046   0.658  10.747 -0.0233  0.2717 -0.2380
 9230PW      WP32625   6.137   0.607  10.841 -0.1545 -0.2034 -0.3558
 9230PW      WM32626   6.025   0.585  10.630  0.0029  0.0408 -0.1019
 9231PW       W32627   3.616   9.612   8.391  0.6177  0.1960  0.0045
 9231PW      WP32628   3.578   9.515   8.484  0.4200  0.3272  0.0631
 9231PW      WM32629   3.557   9.689   8.491 -0.2869 -0.8239  0.3472
 9232PW       W32630   8.778   4.952   1.541 -0.0246 -0.0164  0.2476
 9232PW      WP32631   8.809   5.084   1.508 -0.1115 -0.0776 -0.0980
 9232PW      WM32632   8.769   4.864   1.650 -0.0637 -0.1980  0.1006
 9233PW       W32633   7.997  10.389   4.913  0.0641 -0.0918  0.1526
 9233PW      WP32634   8.101  10.354   4.826 -0.2945 -0.5023 -0.1324
 9233PW      WM32635   7.968  10.508   4.846  0.1238 -0.0148  0.2625
 9234PW       W32636   2.115   2.533  10.700  0.0048  0.0431 -0.4224
 9234PW      WP32637   2.188   2.445  10.779 -0.4518 -0.0797 -0.1169
 9234PW      WM32638   2.036   2.644  10.734  0.0824 -0.1571  0.5410
 9235PW       W32639   2.278   7.544   4.757  0.1678 -0.0157 -0.3708
 9235PW      WP32640   2.334   7.417   4.773 -0.0743 -0.1052 -0.2060
 9235PW      WM32641   2.315   7.678   4.742  0.6717 -0.0862  0.0947
 9236PW       W32642   3.192   6.113   4.932 -0.7118 -0.0606  0.0089
 9236PW      WP32643   3.222   6.093   5.067  0.0172  0.2373 -0.0875
 9236PW      WM32644   3.189   6.029   4.820  0.2044 -0.6816  0.3894
 9237PW       W32645   3.841   7.837  12.955  0.0016 -0.2696 -0.0819
 9237PW      WP32646   3.812   7.927  13.059 -0.2541 -0.0151 -0.3610
 9237PW      WM32647   3.966   7.803  12.904  0.0593 -0.3310  0.0976
 9238PW       W32648   0.383   0.613   3.243  0.3499 -0.5685 -0.2229
 9238PW      WP32649   0.480   0.529   3.188  0.4403 -0.5881 -0.0392
 9238PW      WM32650   0.322   0.487   3.250 -0.1943 -0.3123 -0.0865
 9239PW       W32651   1.217  12.033   8.811  0.4824 -0.3291  0.3474
 9239PW      WP32652   1.312  12.105   8.738 -0.4689  0.5945 -0.1229
 9239PW      WM32653   1.130  12.102   8.897  0.0632 -0.5789  0.1409
 9240PW       W32654   4.746   4.134   2.516  0.0240  0.4342 -0.2212
 9240PW      WP32655   4.666   4.125   2.402 -0.0889 -0.2402 -0.1129
 9240PW      WM32656   4.810   4.258   2.512  0.3150  0.3138  0.2377
 9241PW       W32657   7.961   1.777  11.736 -0.7645  0.1642  0.5946
 9241PW      WP32658   8.051   1.882  11.716 -0.0406 -0.4579  0.3217
 9241PW      WM32659   8.043   1.684  11.802 -0.1258 -0.0691 -0.4053
 9242PW       W32660   2.078   1.123   4.403 -0.3092  0.2505 -0.2676
 9242PW      WP32661   2.155   1.117   4.287  0.2870 -0.5090  0.1229
 9242PW      WM32662   2.076   0.986   4.431 -0.0204  0.1190 -0.8238
 9243PW       W32663  11.655   0.924   9.704  0.4306 -0.2207  0.2442
 9243PW      WP32664  11.601   1.000   9.808  0.0569  0.1306 -0.1834
 9243PW      WM32665  11.631   0.795   9.653 -0.4191 -0.1109  0.2967
 9244PW       W32666   3.152  -0.035   1.715 -0.5732  0.1170  0.1740
 9244PW      WP32667   3.187   0.099   1.690 -0.0257 -0.0292  0.0942
 9244PW      WM32668   3.155   0.068   1.619  0.0396  0.1836  0.2483
 9245PW       W32669   5.435   3.456   8.054 -0.1375  0.3493 -0.2320
 9245PW      WP32670   5.384   3.503   7.933 -0.7102  0.0188 -0.1373
 9245PW      WM32671   5.316   3.402   8.003 -0.1460 -0.0010  0.1311
 9246PW       W32672   1.049   2.182   2.812 -0.0143 -0.1912  0.0607
 9246PW      WP32673   1.013   2.074   2.732 -0.0634  0.0434 -0.2430
 9246PW      WM32674   0.991   2.307   2.784 -0.0950 -0.2502 -0.0386
 9247PW       W32675   0.157   9.442   3.291  0.3870 -0.4793 -0.0508
 9247PW      WP32676   0.278   9.382   3.327  0.3349 -0.4509  0.1794
 9247PW      WM32677   0.148   9.458   3.153 -0.0352 -0.1462  0.0049
 9248PW       W32678   8.560   3.467  12.174  0.0553 -0.0994 -0.1341
 9248PW      WP32679   8.617   3.592  12.201  0.2821 -0.2306 -0.0013
 9248PW      WM32680   8.490   3.365  12.109  0.2190 -0.1553 -0.2236
 9249PW       W32681   6.864   8.239  13.224 -0.8074  0.3032  0.5835
 9249PW      WP32682   6.801   8.136  13.153  0.2588 -0.2096  0.2643
 9249PW      WM32683   6.832   8.279  13.354 -0.2817  0.0072  0.8197
 9250PW       W32684   7.362  11.738   4.455  0.2167 -0.0271 -0.2917
 9250PW      WP32685   7.260  11.831   4.439 -0.1451 -0.3270  0.1420
 9250PW      WM32686   7.488  11.677   4.443  0.1528 -0.2229 -0.0301
 9251PW       W32687   2.263   1.138   3.943  0.4815  0.0326 -0.3061
 9251PW      WP32688   2.297   1.250   3.868  0.4344  0.2003 -0.0843
 9251PW      WM32689   2.197   1.132   4.067 -0.0237 -0.4814 -0.5747
 9252PW       W32690   9.189   3.928   4.230 -0.1040 -0.1771 -0.0873
 9252PW      WP32691   9.274   3.827   4.184  0.3504  0.1341  0.0334
 9252PW      WM32692   9.103   3.934   4.120 -0.2132 -0.5031 -0.0260
 9253PW       W32693   2.094   7.179   3.852  0.4440 -0.2105 -0.1856
 9253PW      WP32694   2.007   7.107   3.935 -0.5819  0.3638 -0.6685
 9253PW      WM32695   1.985   7.121   3.786  0.2286 -0.1043  0.0658
 9254PW       W32696   2.679   5.837   4.872  0.1849  0.2087 -0.0051
 9254PW      WP32697   2.754   5.946   4.827  0.4463  0.2201  0.4292
 9254PW      WM32698   2.671   5.792   4.739  0.8934  0.2466 -0.0805
 9255PW       W32699   5.183  11.623   0.349  0.1347 -0.0424 -0.1474
 9255PW      WP32700   5.182  11.505   0.274 -0.3094 -0.0174 -0.1949
 9255PW      WM32701   5.066  11.547   0.367  0.1394  0.0284  0.2329
 9256PW       W32702  10.464   2.601   4.062 -0.3630 -0.1267 -0.2848
 9256PW      WP32703  10.376   2.498   4.026  0.2241 -0.5358 -0.6531
 9256PW      WM32704  10.410   2.717   4.118 -0.0052 -0.0357 -0.1105
 9257PW       W32705  10.934  10.919  12.284  0.0723 -0.0261  0.2645
 9257PW      WP32706  10.928  10.780  12.264 -0.5948 -0.0174  0.2840
 9257PW      WM32707  11.053  10.978  12.240  0.2413 -0.2495  0.4126
 9258PW       W32708   6.948   4.861  11.633  0.1732  0.3378 -0.0655
 9258PW      WP32709   6.909   4.995  11.644  0.6293  0.4614  0.1329
 9258PW      WM32710   7.062   4.798  11.582 -0.0348 -0.4080  0.3113
 9259PW       W32711   8.057  10.202  12.697 -0.0872  0.1454  0.1156
 9259PW      WP32712   8.132  10.318  12.720 -0.2385  0.2466  0.1106
 9259PW      WM32713   8.093  10.213  12.562  0.0566 -0.0913  0.1328
 9260PW       W32714   1.062  11.322   2.722 -0.0126  0.0766 -0.2056
 9260PW      WP32715   1.032  11.185   2.724 -0.0126  0.0745 -0.3028
 9260PW      WM32716   1.050  11.401   2.836  0.4772  0.3322 -0.3183
 9261PW       W32717  -0.026   4.479   1.828  0.3373 -0.2524 -0.0099
 9261PW      WP32718   0.104   4.522   1.858  0.4514 -0.4951 -0.1357
 9261PW      WM32719  -0.041   4.373   1.738  0.1854 -0.3366  0.1115
 9262PW       W32720   4.940   6.519   8.911  0.1724  0.1747 -0.0640
 9262PW      WP32721   5.024   6.416   8.867  0.1165  0.0115  0.2002
 9262PW      WM32722   4.881   6.631   8.971  0.0099  0.2508 -0.3585
 9263PW       W32723   1.997  11.853   2.295 -0.0989 -0.2181  0.3869
 9263PW      WP32724   1.905  11.947   2.248 -0.1030 -0.3497  0.1261
 9263PW      WM32725   2.096  11.948   2.326  0.0646 -0.3318  0.2260
 9264PW       W32726   5.166   2.377  11.715  0.6312 -0.0690  0.3181
 9264PW      WP32727   5.208   2.243  11.723  0.5481 -0.1126  0.0769
 9264PW      WM32728   5.160   2.422  11.847  0.0834  0.0326  0.2716
 9265PW       W32729   3.939   4.767  11.370 -0.2036 -0.0208  0.3046
 9265PW      WP32730   4.004   4.892  11.365 -0.4994  0.1413  0.4032
 9265PW      WM32731   3.810   4.794  11.324 -0.1140 -0.0225  0.0429
 9266PW       W32732   8.795  11.695   1.995  0.4950 -0.1141  0.0479
 9266PW      WP32733   8.861  11.594   2.067 -0.0730 -0.5738 -0.0351
 9266PW      WM32734   8.847  11.761   2.106  0.1304  0.0935  0.1046
 9267PW       W32735   6.312   3.746  12.607 -1.1784 -0.3332 -0.1221
 9267PW      WP32736   6.402   3.642  12.636  0.0338  0.6097 -0.0783
 9267PW      WM32737   6.268   3.875  12.639 -0.5057 -0.1139 -0.0062
 9268PW       W32738   7.534   5.529   0.242  0.2863 -0.2781 -0.0345
 9268PW      WP32739   7.544   5.666   0.214 -0.3548 -0.2208 -0.0491
 9268PW      WM32740   7.664   5.577   0.263  0.1651  0.2200 -0.3568
 9269PW       W32741   6.628   5.416  10.610  0.0834  0.0688  0.8520
 9269PW      WP32742   6.701   5.304  10.649  0.5278  0.2765  0.6604
 9269PW      WM32743   6.764   5.447  10.607  0.0933  0.0708  0.0632
 9270PW       W32744   1.895   6.827   1.255 -0.5454  0.0658 -0.0296
 9270PW      WP32745   1.808   6.868   1.357 -0.2787  0.0427  0.2141
 9270PW      WM32746   1.928   6.916   1.358 -0.4687 -0.2567  0.2317
 9271PW       W32747   0.654  12.150  12.102 -0.5261  0.2117 -0.0360
 9271PW      WP32748   0.776  12.159  12.035 -0.3934  0.1077  0.1883
 9271PW      WM32749   0.588  12.033  12.140 -0.2291  0.0919  0.1287
 9272PW       W32750  12.155   1.481  11.436 -0.6028  0.3964  0.2385
 9272PW      WP32751  12.107   1.389  11.342  0.2342  0.0100  0.1491
 9272PW      WM32752  12.127   1.460  11.572  0.4326 -0.3166  0.3975
 9273PW       W32753   0.622   0.450   0.895  0.1286  0.3028 -0.0841
 9273PW      WP32754   0.554   0.391   0.788  0.0648  0.2553 -0.0177
 9273PW      WM32755   0.680   0.514   1.005  0.3370 -0.1837  0.1042
 9274PW       W32756   3.992   1.303   9.897 -0.1412  0.3101  0.3063
 9274PW      WP32757   4.009   1.409   9.807  0.5665 -0.2112 -0.2212
 9274PW      WM32758   4.064   1.262  10.010 -0.0688 -0.1683  0.0974
 9275PW       W32759   9.312   3.249   8.864  0.2951 -0.3366  0.5275
 9275PW      WP32760   9.213   3.159   8.825  0.2044  0.0030 -0.0924
 9275PW      WM32761   9.190   3.310   8.894 -0.0284 -0.4267 -0.4416
 9276PW       W32762  11.714   5.953   3.566  0.0626 -0.0843  0.4391
 9276PW      WP32763  11.712   6.061   3.656  0.0487  0.2097  0.0958
 9276PW      WM32764  11.686   5.858   3.468 -0.0319  0.2254  0.1539
 9277PW       W32765   3.132   1.617   8.249 -0.4230 -0.0326 -0.0626
 9277PW      WP32766   3.069   1.702   8.341  0.0177  0.1990  0.0386
 9277PW      WM32767   3.186   1.662   8.371  0.4393 -0.1008 -0.3864
 9278PW       W32768   3.882   4.303   2.342 -0.0164  0.2441 -0.1053
 9278PW      WP32769   3.757   4.246   2.368  0.2121 -0.2779 -0.0753
 9278PW      WM32770   3.902   4.257   2.473 -0.1548  0.0385 -0.1541
 9279PW       W32771  11.045   7.741   3.029  0.3525 -0.2392 -0.4204
 9279PW      WP32772  11.022   7.605   3.001  0.1149 -0.3228  0.1204
 9279PW      WM32773  11.050   7.845   2.936 -0.2146  0.1159 -0.0814
 9280PW       W32774   6.896   4.682   4.695 -0.1415 -0.1672  0.2757
 9280PW      WP32775   6.808   4.587   4.643  0.1778 -0.0220 -0.6215
 9280PW      WM32776   6.986   4.771   4.636 -0.3936 -0.3600 -0.4494
 9281PW       W32777   9.644   2.634  12.659 -0.1975 -0.1437  0.1027
 9281PW      WP32778   9.783   2.628  12.660 -0.1733  0.1070 -0.3633
 9281PW      WM32779   9.596   2.692  12.541 -0.0053  0.4498  0.2988
 9282PW       W32780  11.219   0.640   0.148 -0.6012 -0.1152 -0.1342
 9282PW      WP32781  11.274   0.540   0.230 -0.5059  0.0145 -0.0372
 9282PW      WM32782  11.244   0.630   0.011  0.3896 -0.0612  0.0079
 9283PW       W32783   3.559  11.703   9.102 -0.1648  0.2266  0.1140
 9283PW      WP32784   3.424  11.667   9.103 -0.0374 -0.4209 -0.6611
 9283PW      WM32785   3.664  11.703   9.009 -0.1349  0.3411  0.1467
 9284PW       W32786   2.458   8.170  13.184  0.2664 -0.1619  0.3196
 9284PW      WP32787   2.342   8.092  13.180  0.2562 -0.1407  0.1687
 9284PW      WM32788   2.563   8.230  13.113 -0.4226  0.0547 -0.6015
 9285PW       W32789   3.307   7.708   3.225 -0.0452 -0.4945 -0.3053
 9285PW      WP32790   3.370   7.687   3.349 -0.2068 -0.0254 -0.1313
 9285PW      WM32791   3.250   7.795   3.131  0.1260 -0.3618 -0.2882
 9286PW       W32792   7.369   3.826   9.975  0.1885 -0.0554  0.3339
 9286PW      WP32793   7.451   3.717  10.003 -0.0314 -0.2356  0.2918
 9286PW      WM32794   7.239   3.800  10.021 -0.1756 -0.0181 -0.5629
 9287PW       W32795   1.600  10.066   5.291  0.2082  0.2748  0.0713
 9287PW      WP32796   1.682  10.176   5.264 -0.0086  0.6339  0.7586
 9287PW      WM32797   1.496  10.040   5.202  0.2105 -0.7985  0.3138
 9288PW       W32798   9.735   2.381   2.873 -0.4927  0.1759  0.0512
 9288PW      WP32799   9.784   2.489   2.799  0.1635 -0.0328  0.1488
 9288PW      WM32800   9.821   2.358   2.765 -0.0149  0.4311  0.3599
 9289PW       W32801   8.168  10.780   4.643 -0.1935  0.1858  0.0540
 9289PW      WP32802   8.110  10.661   4.688  0.1562  0.1136  0.3328
 9289PW      WM32803   8.121  10.805   4.514 -0.5800 -0.1483  0.1212
 9290PW       W32804  10.237   2.223   1.427  0.0025  0.0804  0.0840
 9290PW      WP32805  10.341   2.171   1.505  0.1148  0.5283  0.2450
 9290PW      WM32806  10.303   2.108   1.380  0.0350  0.0391  0.2265
 9291PW       W32807  10.315   7.777   9.230 -0.0753  0.0052  0.2130
 9291PW      WP32808  10.387   7.829   9.338  0.3187  0.2224 -0.1392
 9291PW      WM32809  10.216   7.763   9.327 -0.4205 -0.0513 -0.1368
 9292PW       W32810   9.080   5.298   9.240 -0.2034 -0.6457 -0.4371
 9292PW      WP32811   9.171   5.194   9.217  0.6917 -0.2263  0.7234
 9292PW      WM32812   9.139   5.401   9.166 -0.0876 -0.2533  0.1694
 9293PW       W32813   8.442   3.620   1.676 -0.0286 -0.3566  0.0009
 9293PW      WP32814   8.308   3.582   1.660  0.0677 -0.6417 -0.1779
 9293PW      WM32815   8.394   3.745   1.634  0.3448  0.0707  0.7495
 9294PW       W32816   9.200   8.561  12.247  0.2618 -0.3564  0.0580
 9294PW      WP32817   9.308   8.471  12.247  0.4513 -0.1334 -0.0152
 9294PW      WM32818   9.148   8.471  12.153  0.1925 -0.4392  0.1745
 9295PW       W32819   5.872   2.115   1.316 -0.1957 -0.6132 -0.1428
 9295PW      WP32820   5.866   2.092   1.454 -0.0879 -0.1872 -0.0603
 9295PW      WM32821   5.963   2.019   1.270  0.3041 -0.0238 -0.4639
 9296PW       W32822   7.272   4.113   0.136  0.1564 -0.4462  0.2390
 9296PW      WP32823   7.369   4.146   0.041 -0.0610 -0.2545  0.0769
 9296PW      WM32824   7.158   4.096   0.216 -0.1571  0.2401 -0.0223
 9297PW       W32825  11.887   0.297   3.716 -0.0053 -0.2174 -0.1163
 9297PW      WP32826  11.812   0.180   3.707 -0.1839 -0.1374  0.2400
 9297PW      WM32827  11.868   0.285   3.854  0.2435 -0.4342 -0.0962
 9298PW       W32828  10.677  10.082   8.564 -0.0333  0.2152  0.1190
 9298PW      WP32829  10.559  10.117   8.496  0.2195  0.3011 -0.2943
 9298PW      WM32830  10.681  10.092   8.703 -0.5905  0.3464  0.1369
 9299PW       W32831   7.895   3.255   0.152 -0.0612 -0.0207  0.1131
 9299PW      WP32832   7.903   3.116   0.158 -0.2603 -0.0286  0.2405
 9299PW      WM32833   7.765   3.302   0.127 -0.0339 -0.1759 -0.3663
 9300PW       W32834   6.458   8.446   9.175 -0.0204 -0.0232  0.0743
 9300PW      WP32835   6.544   8.557   9.177 -0.2401  0.1577  0.7843
 9300PW      WM32836   6.394   8.498   9.062  0.3957  0.0057 -0.1582
 9301PW       W32837   7.176   9.021  11.135  0.1432 -0.3582 -0.4072
 9301PW      WP32838   7.079   9.050  11.038  0.2627  0.0653 -0.4100
 9301PW      WM32839   7.293   9.078  11.186 -0.4423  0.5973  0.0220
 9302PW       W32840   7.877  11.829   0.931 -0.6165  0.3509  0.2422
 9302PW      WP32841   7.943  11.925   1.008 -0.2378  0.2800  0.0203
 9302PW      WM32842   7.785  11.858   1.032 -0.2916  0.3870  0.5352
 9303PW       W32843   7.159   3.012   1.787  0.3971  0.0783  0.0507
 9303PW      WP32844   7.265   3.080   1.726 -0.1523  0.5568 -0.4287
 9303PW      WM32845   7.097   2.889   1.810  0.4962  0.0382  0.1064
 9304PW       W32846   9.289   7.552  10.176  0.0479  0.1816 -0.0475
 9304PW      WP32847   9.383   7.643  10.126 -0.0920  0.0917 -0.4979
 9304PW      WM32848   9.158   7.502  10.172  0.1945 -0.2409  0.1804
 9305PW       W32849   4.385   3.259  12.363  0.2519  0.1379  0.6850
 9305PW      WP32850   4.338   3.171  12.460 -0.1105 -0.3644  0.0959
 9305PW      WM32851   4.398   3.187  12.243  0.0087  0.1657  0.6375
 9306PW       W32852  10.586   7.864   2.042 -0.2054  0.0197  0.0710
 9306PW      WP32853  10.586   7.788   2.160  0.0396  0.1147  0.1369
 9306PW      WM32854  10.461   7.908   1.998 -0.3094 -0.0923  0.2498
 9307PW       W32855   9.202  11.869   0.258  0.0446 -0.0881  0.0721
 9307PW      WP32856   9.142  11.851   0.133  0.1655 -0.1183  0.0180
 9307PW      WM32857   9.136  11.915   0.373  0.1573 -0.1517  0.1634
 9308PW       W32858   5.954   1.137  11.566 -0.3515  0.0045 -0.1111
 9308PW      WP32859   5.847   1.186  11.641  0.3377  0.3698  0.7269
 9308PW      WM32860   5.866   1.030  11.543  0.0108 -0.2728 -0.2709
 9309PW       W32861   6.247   6.349  12.500  0.3487  0.2925 -0.2235
 9309PW      WP32862   6.125   6.298  12.454 -0.1430  1.0636  0.1071
 9309PW      WM32863   6.270   6.487  12.492 -0.1594  0.4066  0.0350
 9310PW       W32864   7.094   2.338  10.468  0.4059  0.0262  0.2690
 9310PW      WP32865   6.954   2.334  10.474  0.4097 -0.2022  0.2686
 9310PW      WM32866   7.194   2.266  10.401  0.1195 -0.1000 -0.0399
 9311PW       W32867   4.970   6.050   1.333 -0.3059 -0.4181  0.2917
 9311PW      WP32868   4.915   5.926   1.368 -0.3154 -0.6284 -0.3857
 9311PW      WM32869   4.985   5.982   1.211 -0.5349  0.0638 -0.0184
 9312PW       W32870   2.959  11.185   2.551  0.2786 -0.2144  0.0686
 9312PW      WP32871   3.035  11.271   2.630  0.3556 -0.1731 -0.0494
 9312PW      WM32872   2.822  11.180   2.519  0.2110  0.0852  0.2940
 9313PW       W32873   7.653   3.531   1.975 -0.1440 -0.0865 -0.2717
 9313PW      WP32874   7.727   3.532   2.093 -0.5620 -0.1082 -0.0006
 9313PW      WM32875   7.645   3.611   1.860  0.0905  0.4295  0.0554
 9314PW       W32876   3.807   2.070   3.804 -0.3015  0.1261  0.2602
 9314PW      WP32877   3.898   2.005   3.888  0.0467  0.3144  0.0420
 9314PW      WM32878   3.764   2.203   3.806  0.0990  0.2743 -0.0698
 9315PW       W32879   8.803   2.219   9.366  0.2265 -0.2679  0.0285
 9315PW      WP32880   8.740   2.220   9.240  0.1593 -0.0034  0.0602
 9315PW      WM32881   8.888   2.330   9.370  0.0249 -0.0893 -0.3213
 9316PW       W32882   9.916   3.940  12.783  0.2148 -0.1589 -0.2654
 9316PW      WP32883   9.791   3.897  12.735  0.1284 -0.1226 -0.0763
 9316PW      WM32884  10.024   3.864  12.831 -0.1209 -0.2821  0.3488
 9317PW       W32885   5.543  10.273   0.596  0.2709 -0.6957 -0.2079
 9317PW      WP32886   5.448  10.218   0.683 -0.0513 -0.3173 -0.3057
 9317PW      WM32887   5.562  10.272   0.457 -0.2773 -0.3255 -0.3036
 9318PW       W32888   8.209   0.419  12.804  0.0846  0.2456 -0.2314
 9318PW      WP32889   8.114   0.465  12.712 -0.6404  0.2540  0.4608
 9318PW      WM32890   8.265   0.317  12.726 -0.0257  0.1742 -0.2189
 9319PW       W32891   7.844   5.620   9.750 -0.5416  0.1685 -0.0376
 9319PW      WP32892   7.912   5.740   9.772 -0.0436 -0.0630 -0.2352
 9319PW      WM32893   7.833   5.578   9.883 -0.5645 -0.1396 -0.1339
 9320PW       W32894   3.541   6.145   4.216 -0.0775  0.2368 -0.5423
 9320PW      WP32895   3.544   6.278   4.171 -0.5369  0.2076 -0.6814
 9320PW      WM32896   3.460   6.181   4.108 -0.2965  0.1521 -0.4076
 9321PW       W32897   3.590   2.834   1.100 -0.0498 -0.0613 -0.9185
 9321PW      WP32898   3.682   2.733   1.070  0.2507 -0.0560 -0.1181
 9321PW      WM32899   3.701   2.815   1.182 -0.2586  0.6161 -0.4332
 9322PW       W32900  10.490  10.348  12.460 -0.2110  0.0512 -0.1339
 9322PW      WP32901  10.510  10.487  12.466  0.0973 -0.0041  0.4389
 9322PW      WM32902  10.523  10.214  12.436  0.1532  0.1015  0.0474
 9323PW       W32903   4.809  11.485  10.885 -0.0400  0.0985  0.0653
 9323PW      WP32904   4.862  11.391  10.974  0.7051  0.4911  0.0674
 9323PW      WM32905   4.677  11.478  10.838  0.0744 -0.1559 -0.2411
 9324PW       W32906   5.780   6.908  12.053  0.5545 -0.2002 -0.1512
 9324PW      WP32907   5.699   7.020  12.029  0.0771 -0.4942  0.0226
 9324PW      WM32908   5.777   6.775  12.009 -0.1810 -0.2204 -0.1025
 9325PW       W32909   5.211   0.943   5.340 -0.5925 -0.1436  0.4426
 9325PW      WP32910   5.209   1.062   5.415  0.0606 -0.1459  0.4947
 9325PW      WM32911   5.114   0.986   5.249  0.0670  0.2045 -0.1465
 9326PW       W32912   6.140   7.633   1.315  0.1673 -0.3396 -0.0781
 9326PW      WP32913   6.127   7.691   1.188 -0.2760  0.5315  0.3221
 9326PW      WM32914   6.223   7.745   1.326 -0.4469  0.1059  0.4151
 9327PW       W32915  11.484   6.015   1.688 -0.0824  0.1555 -0.2587
 9327PW      WP32916  11.606   5.948   1.690 -0.2004 -0.0623  0.0895
 9327PW      WM32917  11.521   6.110   1.592 -0.1677  0.1726 -0.2749
 9328PW       W32918   9.062   5.850   9.172 -0.2938 -0.2256  0.1087
 9328PW      WP32919   8.932   5.823   9.129 -0.1489 -0.7368 -0.0389
 9328PW      WM32920   9.132   5.952   9.106  0.5126 -0.6519  0.2434
 9329PW       W32921   5.306   1.305   0.789  0.1118  0.2101  0.0459
 9329PW      WP32922   5.308   1.343   0.654  0.2844 -0.1099 -0.0461
 9329PW      WM32923   5.167   1.295   0.789  0.1247 -0.0175  0.2383
 9330PW       W32924   4.823   5.797  10.701  0.4261 -0.1275 -0.0728
 9330PW      WP32925   4.786   5.768  10.569 -0.2083  0.8172 -0.1483
 9330PW      WM32926   4.763   5.923  10.718 -0.0104 -0.3468  0.0934
 9331PW       W32927  10.564  11.364  12.164  0.0586  0.0582 -0.1362
 9331PW      WP32928  10.508  11.492  12.148  0.4026  0.2232 -0.0655
 9331PW      WM32929  10.615  11.353  12.294 -0.0055  0.4538 -0.0699
 9332PW       W32930   7.884   8.662  11.508  0.1724  0.0026 -0.1447
 9332PW      WP32931   7.750   8.659  11.549  0.1593  0.2138 -0.1671
 9332PW      WM32932   8.024   8.668  11.511  0.1879 -0.1957 -0.3216
 9333PW       W32933   0.218   7.114   3.110  0.2067 -0.0863 -0.1701
 9333PW      WP32934   0.294   7.228   3.138  0.0257 -0.0417  0.1688
 9333PW      WM32935   0.240   7.111   2.972 -0.4615  0.5880 -0.3267
 9334PW       W32936   6.516   5.167   1.961  0.1137 -0.1972 -0.0284
 9334PW      WP32937   6.647   5.204   1.928  0.0356  0.1241  0.0034
 9334PW      WM32938   6.587   5.060   1.905  0.2347  0.0035 -0.2692
 9335PW       W32939   4.143   1.321   9.043 -0.1813  0.1323 -0.3419
 9335PW      WP32940   4.158   1.385   8.920  0.5872  0.0915 -0.2911
 9335PW      WM32941   4.023   1.249   9.050 -0.0917 -0.0193 -0.3302
 9336PW       W32942   7.745  11.503   1.803 -0.1711  0.1928  0.1402
 9336PW      WP32943   7.671  11.385   1.788 -0.1911  0.2187  0.0304
 9336PW      WM32944   7.642  11.492   1.710  0.0056 -0.1243 -0.0292
 9337PW       W32945   6.707   7.584   9.738  0.2709  0.6410 -0.4419
 9337PW      WP32946   6.626   7.639   9.638 -0.2371  0.4392 -0.1569
 9337PW      WM32947   6.812   7.497   9.707  0.0171  0.0298  0.2536
 9338PW       W32948   5.325   1.254  12.350 -0.4383 -0.1563  0.0136
 9338PW      WP32949   5.452   1.203  12.318 -0.2644  0.1913  0.1179
 9338PW      WM32950   5.374   1.379  12.390 -0.5874 -0.2326  0.4664
 9339PW       W32951  11.156   9.452  13.338  0.0853  0.2941  0.8683
 9339PW      WP32952  11.056   9.484  13.246  0.2188  0.0088  0.6147
 9339PW      WM32953  11.238   9.532  13.418  0.6114  0.5431  0.1303
 9340PW       W32954   1.099   9.110   3.384  0.6217  0.5050 -0.0529
 9340PW      WP32955   1.080   9.109   3.246  0.0203 -0.2273  0.0009
 9340PW      WM32956   1.066   9.103   3.520  0.2992  0.1141 -0.1435
 9341PW       W32957   2.918  10.849  10.650  0.0909  0.2125 -0.4075
 9341PW      WP32958   2.988  10.840  10.529  0.5025  0.1209 -0.1736
 9341PW      WM32959   2.841  10.954  10.598 -0.6247 -0.1087 -0.0590
 9342PW       W32960  11.634   5.115   3.088 -0.0177 -0.2426  0.4471
 9342PW      WP32961  11.512   5.110   3.020  0.0563 -0.0539  0.2949
 9342PW      WM32962  11.636   5.062   2.958  0.2489 -0.4638  0.5370
 9343PW       W32963   1.892   6.280  11.620 -0.1216 -0.2528  0.2093
 9343PW      WP32964   2.014   6.349  11.611 -0.4414  0.2785 -0.4315
 9343PW      WM32965   1.814   6.369  11.695  0.0308 -0.2129  0.3229
 9344PW       W32966   4.011   8.894   9.518  0.0153  0.0445 -0.0171
 9344PW      WP32967   4.122   8.864   9.599  0.0879  0.7550  0.1767
 9344PW      WM32968   4.018   8.848   9.386  0.0234 -0.2222  0.0733
 9345PW       W32969   7.054  10.264  12.752 -0.1124  0.0976  0.2218
 9345PW      WP32970   6.962  10.368  12.768 -0.0176  0.2386 -0.1007
 9345PW      WM32971   7.135  10.281  12.638  0.2689 -0.4050  0.4014
 9346PW       W32972   9.675  11.461  12.604 -0.2974 -0.5729 -0.0433
 9346PW      WP32973   9.733  11.342  12.648  0.4032 -0.2055  0.0949
 9346PW      WM32974   9.696  11.428  12.470  0.4336 -0.1785 -0.0485
 9347PW       W32975   7.926   4.520   9.620  0.1259  0.0034 -0.1782
 9347PW      WP32976   7.882   4.582   9.502  0.0466  0.1997 -0.0470
 9347PW      WM32977   8.035   4.462   9.553 -0.0143 -0.6764  0.1335
 9348PW       W32978   4.045   8.311   0.092  0.0639 -0.1654  0.0421
 9348PW      WP32979   3.982   8.413   0.165  0.3499  0.1669 -0.1595
 9348PW      WM32980   4.132   8.236   0.171  0.1201 -0.1826 -0.0352
 9349PW       W32981   7.562   6.980   0.637 -0.1627 -0.4574 -0.3354
 9349PW      WP32982   7.573   7.084   0.544 -0.2904 -0.1446 -0.0153
 9349PW      WM32983   7.694   6.989   0.682 -0.4890 -0.1037  0.7044
 9350PW       W32984   2.490   9.508   4.540  0.2432  0.1107  0.5183
 9350PW      WP32985   2.456   9.620   4.463 -0.1587  0.0090  0.5390
 9350PW      WM32986   2.383   9.424   4.572 -0.0295  0.3038  0.1569
 9351PW       W32987   2.604   5.337   4.608 -0.3814 -0.2114  0.6424
 9351PW      WP32988   2.658   5.360   4.735  0.1708  0.4087  0.3274
 9351PW      WM32989   2.561   5.273   4.491  0.3142 -0.0229  0.2584
 9352PW       W32990   6.611  11.730   1.487  0.0753  0.0470 -0.1340
 9352PW      WP32991   6.734  11.729   1.554 -0.1782 -0.6948  0.3778
 9352PW      WM32992   6.574  11.672   1.365  0.3294 -0.3087 -0.0501
 9353PW       W32993  10.456   7.433   0.375 -0.0774 -0.1534 -0.2693
 9353PW      WP32994  10.427   7.568   0.352  0.0400 -0.0629  0.0802
 9353PW      WM32995  10.532   7.429   0.492 -0.0566 -0.8532 -0.2840
 9354PW       W32996   2.867   6.192   0.436 -0.0730 -0.3613 -0.2844
 9354PW      WP32997   2.797   6.125   0.335  0.0107 -0.2438 -0.4220
 9354PW      WM32998   2.914   6.164   0.565 -0.3232  0.4160  0.0022
 9355PW       W32999   5.616   2.929   8.827  0.6721  0.2682 -0.3352
 9355PW      WP33000   5.661   2.964   8.954  0.4519  0.3693 -0.2840
 9355PW      WM33001   5.603   2.810   8.753  0.5449  0.0816 -0.0213
 9356PW       W33002   4.881   4.349  12.713 -0.0700 -0.2861 -0.0369
 9356PW      WP33003   5.015   4.370  12.747  0.0314 -0.3714 -0.3721
 9356PW      WM33004   4.841   4.298  12.837  0.1314 -0.3982 -0.0172
 9357PW       W33005  11.349   9.380  10.684  0.0949 -0.5151 -0.2135
 9357PW      WP33006  11.303   9.370  10.815  0.2525  0.0149 -0.1067
 9357PW      WM33007  11.272   9.341  10.574 -0.1799 -0.1836 -0.1464
 9358PW       W33008   0.940   3.775   3.139 -0.0616  0.0042  0.0156
 9358PW      WP33009   1.080   3.774   3.126 -0.0431  0.3933  0.1180
 9358PW      WM33010   0.878   3.650   3.156  0.0853 -0.0947 -0.1527
 9359PW       W33011   8.833   0.800  12.127  0.1557  0.2038  0.1382
 9359PW      WP33012   8.806   0.903  12.219 -0.3951  0.2688 -0.0745
 9359PW      WM33013   8.810   0.868  12.007 -0.1230  0.0073  0.0749
 9360PW       W33014   0.495   6.008  11.864 -0.7443  0.1648 -0.1512
 9360PW      WP33015   0.485   5.925  11.976  0.4606 -0.4531 -0.4133
 9360PW      WM33016   0.539   5.953  11.743 -0.3878 -0.1726  0.1208
 9361PW       W33017   6.597   3.721   0.365 -0.0468 -0.2563 -0.2774
 9361PW      WP33018   6.522   3.838   0.351 -0.0673 -0.1717  0.4047
 9361PW      WM33019   6.597   3.592   0.420  0.0427 -0.0937  0.1124
 9362PW       W33020   6.586   3.281  11.961 -0.0255  0.2774  0.3052
 9362PW      WP33021   6.534   3.280  12.091 -0.2967 -0.2994  0.2067
 9362PW      WM33022   6.544   3.147  11.958  0.3983  0.0862 -1.1699
 9363PW       W33023   2.943   7.095   2.730 -0.0502  0.2968 -0.4280
 9363PW      WP33024   3.046   7.173   2.676  0.3172  0.0369 -0.1283
 9363PW      WM33025   2.943   7.078   2.869 -0.0959  0.4048 -0.4141
 9364PW       W33026   4.284   8.827  12.317  0.1299  0.6905 -0.2226
 9364PW      WP33027   4.170   8.877  12.382 -0.1607  0.3965 -0.4825
 9364PW      WM33028   4.388   8.786  12.234  0.0893 -0.1915  0.1119
 9365PW       W33029   1.663   9.355   3.600  0.1795  0.0247  0.4011
 9365PW      WP33030   1.721   9.328   3.725  0.4520 -0.4458  0.1839
 9365PW      WM33031   1.655   9.256   3.502  0.1329  0.1752  0.2497
 9366PW       W33032   0.696   0.129  13.348  0.2854  0.0251 -0.2160
 9366PW      WP33033   0.808   0.047  13.363  0.0241 -0.2494  0.4252
 9366PW      WM33034   0.577   0.201  13.366  0.0697 -0.4214  0.2604
 9367PW       W33035   8.522   4.554   9.816 -0.1666 -0.1264 -0.3151
 9367PW      WP33036   8.541   4.693   9.808  0.2343 -0.1428  0.1022
 9367PW      WM33037   8.437   4.548   9.927 -0.1142 -0.4377 -0.2864
 9368PW       W33038   7.409   4.017   1.877  0.0071 -0.0330 -0.2973
 9368PW      WP33039   7.496   4.126   1.869  0.1837 -0.1570 -0.1194
 9368PW      WM33040   7.412   3.964   2.007  0.1450  0.2507 -0.1790
 9369PW       W33041  10.951   3.893   0.305  0.2243 -0.1495 -0.0437
 9369PW      WP33042  11.069   3.932   0.370  0.1322  0.2999 -0.1264
 9369PW      WM33043  10.867   3.838   0.403  0.0597 -0.0012 -0.0994
 9370PW       W33044   3.180   4.888  11.372  0.3461  0.3642 -0.3186
 9370PW      WP33045   3.262   4.887  11.485 -0.0235  0.1609 -0.0425
 9370PW      WM33046   3.047   4.848  11.364  0.4628 -0.4394  0.7450
 9371PW       W33047   4.430   1.136   3.691 -0.0890  0.4572  0.0741
 9371PW      WP33048   4.552   1.175   3.635  0.1908 -0.1281  0.2310
 9371PW      WM33049   4.291   1.153   3.694 -0.0779  0.5201  0.2744
 9372PW       W33050   2.010  11.190   0.525 -0.0532 -0.1744  0.1130
 9372PW      WP33051   1.948  11.301   0.582  0.2770  0.1388 -0.1139
 9372PW      WM33052   2.131  11.127   0.492 -0.0882 -0.0679 -0.2313
 9373PW       W33053   3.440  10.587  11.408 -0.1653  0.5961  0.1831
 9373PW      WP33054   3.526  10.618  11.303 -0.1182 -0.2393 -0.0554
 9373PW      WM33055   3.325  10.554  11.335 -0.0956 -0.2412  0.3977
 9374PW       W33056   4.057   9.367  10.335 -0.2230  0.0984  0.0745
 9374PW      WP33057   4.124   9.285  10.427  0.0966 -0.2480 -0.4433
 9374PW      WM33058   3.956   9.430  10.262 -0.1274  0.1180 -0.0434
 9375PW       W33059   3.950   7.452   0.002 -0.0278 -0.1577 -0.2708
 9375PW      WP33060   4.062   7.436   0.086 -0.2458 -0.1251  0.0338
 9375PW      WM33061   3.879   7.355   0.073  0.3675 -0.1053  0.2302
 9376PW       W33062   0.219  11.101   3.643  0.1969  0.1072 -0.4721
 9376PW      WP33063   0.154  11.222   3.671 -0.5173 -0.3140 -0.1667
 9376PW      WM33064   0.128  10.998   3.616 -0.0233  0.0778  0.2682
 9377PW       W33065  10.512   5.919   8.533 -0.0554  0.3344  0.4807
 9377PW      WP33066  10.456   5.826   8.622 -0.2469  0.1827  0.2080
 9377PW      WM33067  10.505   6.037   8.459 -0.2540 -0.0370 -0.1347
 9378PW       W33068   0.038  10.264   1.650  0.1715  0.1012  0.0930
 9378PW      WP33069   0.023  10.225   1.783 -0.2369  0.3242  0.1203
 9378PW      WM33070  -0.015  10.293   1.523 -0.4887 -0.0610  0.3128
 9379PW       W33071  11.137   7.502  10.942  0.2755  0.0588  0.2918
 9379PW      WP33072  11.041   7.535  11.038  0.1770  0.4109  0.0805
 9379PW      WM33073  11.244   7.574  10.997  0.2992  0.0005  0.3231
 9380PW       W33074   2.619   7.775   8.580 -0.1492 -0.0236 -0.1201
 9380PW      WP33075   2.727   7.701   8.530 -0.3080 -0.3565  0.0132
 9380PW      WM33076   2.506   7.800   8.658 -0.1232 -0.1626 -0.0356
 9381PW       W33077  10.140  10.550  12.822 -0.0558 -0.3006 -0.2554
 9381PW      WP33078  10.095  10.541  12.955  0.4913 -0.0005 -0.0338
 9381PW      WM33079  10.249  10.588  12.742 -0.1054  0.0735 -0.1557
 9382PW       W33080   3.014  10.789  12.094 -0.2915 -0.1853  0.0970
 9382PW      WP33081   3.064  10.738  11.973  0.0870  0.2920  0.0368
 9382PW      WM33082   2.878  10.755  12.100 -0.4464  0.3519 -0.0468
 9383PW       W33083   2.143  11.919  10.333  0.0352 -0.2850 -0.4640
 9383PW      WP33084   2.006  11.933  10.307  0.1009  0.0193 -0.6881
 9383PW      WM33085   2.246  11.841  10.386  0.0844  0.0844  0.0168
 9384PW       W33086   9.350   3.073  11.880 -0.0052  0.0901 -0.2662
 9384PW      WP33087   9.478   3.061  11.824  0.0008 -0.1632 -0.2043
 9384PW      WM33088   9.415   3.127  11.992 -0.0195  0.2461 -0.3316
 9385PW       W33089   2.838   2.390  11.608  0.1919  0.0189 -0.0445
 9385PW      WP33090   2.703   2.396  11.644  0.2099 -0.4487  0.1338
 9385PW      WM33091   2.974   2.361  11.628  0.3842  0.4589 -0.5780
 9386PW       W33092   7.345   2.730   9.028  0.3280  0.1888  0.0931
 9386PW      WP33093   7.331   2.699   8.892  0.4443  0.0728  0.1076
 9386PW      WM33094   7.223   2.783   9.073  0.1603 -0.4301  0.4270
 9387PW       W33095   1.148   2.050   8.602 -0.3461 -0.2549  0.0068
 9387PW      WP33096   1.114   2.001   8.728 -0.1028 -0.2868  0.0614
 9387PW      WM33097   1.182   2.168   8.669  0.4171 -0.4411 -0.0086
 9388PW       W33098   9.208  11.588  10.075 -0.3376  0.1255 -0.4193
 9388PW      WP33099   9.265  11.517   9.969  0.3714  0.2117 -0.1219
 9388PW      WM33100   9.227  11.697   9.988 -0.5936  0.4141 -0.1273
 9389PW       W33101   4.491   8.214  11.606  0.2528  0.0863  0.6386
 9389PW      WP33102   4.602   8.150  11.549 -0.1946  0.0889 -0.3316
 9389PW      WM33103   4.403   8.109  11.636 -0.1622 -0.0647 -0.7467
 9390PW       W33104   2.674  10.469  10.313  0.1039  0.1225 -0.4283
 9390PW      WP33105   2.737  10.434  10.193  0.0019 -0.1387 -0.4095
 9390PW      WM33106   2.546  10.411  10.305  0.0395  0.2897 -0.7106
 9391PW       W33107   8.037   6.204   9.439  0.0937  0.4052 -0.0566
 9391PW      WP33108   8.136   6.285   9.496 -0.1474  0.5317  0.1900
 9391PW      WM33109   8.020   6.111   9.335  0.1891 -0.1439  0.3932
 9392PW       W33110  11.720  10.949  12.629 -0.1743  0.0260  0.0116
 9392PW      WP33111  11.854  10.975  12.660 -0.0251 -0.1179 -0.4716
 9392PW      WM33112  11.750  10.812  12.623  0.0300  0.0687  0.0310
 9393PW       W33113   4.734   6.919   2.170  0.2328  0.7168 -0.4378
 9393PW      WP33114   4.696   6.858   2.049  0.1124  0.3375 -0.2163
 9393PW      WM33115   4.862   6.865   2.187 -0.1002  0.0812  0.4404
 9394PW       W33116   3.069  10.452   2.552 -0.1803 -0.1803 -0.0131
 9394PW      WP33117   3.195  10.486   2.602 -0.2529 -0.5649  0.4703
 9394PW      WM33118   3.106  10.586   2.533 -0.1453 -0.2369 -0.3939
 9395PW       W33119   6.522   1.070   5.423 -0.0863  0.0178  0.1185
 9395PW      WP33120   6.652   1.017   5.416  0.0673  0.3894  0.0690
 9395PW      WM33121   6.382   1.069   5.419 -0.0908  0.1950  0.2163
 9396PW       W33122   1.468   9.394   2.104  0.3921  0.0215  0.4149
 9396PW      WP33123   1.341   9.362   2.154  0.3159  0.0395  0.2370
 9396PW      WM33124   1.546   9.287   2.057  0.2329 -0.0709  0.3555
 9397PW       W33125   1.215   5.787  13.294 -0.0459 -0.1276  0.2561
 9397PW      WP33126   1.291   5.895  13.245 -0.3010 -0.2542 -0.4848
 9397PW      WM33127   1.076   5.775  13.285 -0.1166  0.5604  0.1453
 9398PW       W33128   0.085   2.044   1.036 -0.0627  0.0887  0.1511
 9398PW      WP33129  -0.015   1.946   1.035  0.0847 -0.0634  0.0570
 9398PW      WM33130   0.111   1.955   1.141 -0.1576  0.2092  0.2791
 9399PW       W33131   8.621   7.249  12.533  0.0336  0.0818 -0.1120
 9399PW      WP33132   8.592   7.350  12.440  0.0626  0.5643  0.3801
 9399PW      WM33133   8.528   7.316  12.613  0.1946 -0.1603  0.2922
 9400PW       W33134  10.350   2.721  12.364 -0.5286 -0.2025  0.0868
 9400PW      WP33135  10.349   2.656  12.241  0.0111  0.5634 -0.3683
 9400PW      WM33136  10.443   2.618  12.379 -0.1429  0.1139 -0.0337
 9401PW       W33137   8.588   2.942   5.033  0.0500  0.1959  0.0176
 9401PW      WP33138   8.520   2.929   5.155 -0.3842  0.3201 -0.2001
 9401PW      WM33139   8.697   2.894   4.959 -0.0190 -0.0170  0.0513
 9402PW       W33140  10.359   0.045   9.981 -0.2317 -0.3024  0.3215
 9402PW      WP33141  10.322   0.180   9.982 -0.3006 -0.2924 -0.5130
 9402PW      WM33142  10.461   0.106   9.908 -0.3657  0.0131  0.3919
 9403PW       W33143   4.252   1.456   5.025  0.0056 -0.5087  0.0227
 9403PW      WP33144   4.235   1.363   4.922 -0.0076 -0.3922 -0.0801
 9403PW      WM33145   4.319   1.540   5.115 -0.5407 -0.0547  0.0332
 9404PW       W33146   4.364   5.971   4.157  0.1020 -0.4809 -0.2645
 9404PW      WP33147   4.278   5.964   4.268  0.3458  0.2431 -0.0018
 9404PW      WM33148   4.272   6.042   4.080  0.2284 -0.0537 -0.0341
 9405PW       W33149   3.243  11.285   0.401 -0.2216  0.2952  0.3174
 9405PW      WP33150   3.132  11.254   0.481 -0.4423  0.0032 -0.0815
 9405PW      WM33151   3.272  11.170   0.326 -0.0641  0.1978  0.5215
 9406PW       W33152   6.757   2.201   4.709 -0.0630  0.5648  0.0277
 9406PW      WP33153   6.737   2.239   4.575  0.1447  0.0963 -0.1478
 9406PW      WM33154   6.626   2.171   4.750  0.1942  0.1776  0.6310
 9407PW       W33155  12.019   1.758   0.634 -0.3654  0.4202  0.4439
 9407PW      WP33156  11.990   1.894   0.614 -0.1976  0.4612  0.4733
 9407PW      WM33157  12.068   1.796   0.759 -0.2475 -0.0623  0.5523
 9408PW       W33158   6.187   3.906   3.063  0.4940  0.3336 -0.0657
 9408PW      WP33159   6.110   4.020   3.038  0.2211  0.1632 -0.0313
 9408PW      WM33160   6.139   3.840   3.177  0.1683 -0.1071 -0.4415
 9409PW       W33161   9.427   7.722   8.816  0.1816 -0.0564 -0.2370
 9409PW      WP33162   9.392   7.617   8.731 -0.1092 -0.1974  0.0483
 9409PW      WM33163   9.527   7.698   8.912  0.1979  0.2058 -0.1838
 9410PW       W33164   2.085  10.226   9.637  0.3763  0.1542  0.3604
 9410PW      WP33165   2.103  10.091   9.604 -0.2992  0.1659 -0.1707
 9410PW      WM33166   1.974  10.294   9.584  0.2108 -0.3114  0.0845
 9411PW       W33167   6.398   5.380   8.845  0.0390  0.1063 -0.1539
 9411PW      WP33168   6.377   5.297   8.956  0.2328 -0.0293 -0.2167
 9411PW      WM33169   6.367   5.512   8.809 -0.0015  0.1252 -0.0530
 9412PW       W33170   5.748   6.708   0.106 -0.1066 -0.1407  0.0709
 9412PW      WP33171   5.692   6.671  -0.017  0.0854 -0.1584 -0.0121
 9412PW      WM33172   5.887   6.709   0.093 -0.1573 -0.3290 -0.8882
 9413PW       W33173   9.317   0.021  13.158  0.4068 -0.0253 -0.1262
 9413PW      WP33174   9.400   0.047  13.048 -0.1428 -0.0540 -0.5692
 9413PW      WM33175   9.233   0.130  13.185  0.3971 -0.1762  0.5326
 9414PW       W33176   3.238   4.629  10.797 -0.0008 -0.2439 -0.0605
 9414PW      WP33177   3.311   4.718  10.877 -0.2208 -0.3648  0.2820
 9414PW      WM33178   3.226   4.707  10.681  0.0523 -0.3104 -0.1110
 9415PW       W33179   4.798   0.534   8.322  0.2390 -0.1876  0.1301
 9415PW      WP33180   4.761   0.655   8.382  0.6436  0.2332 -0.4102
 9415PW      WM33181   4.698   0.460   8.386  0.1284 -0.2283 -0.0824
 9416PW       W33182   1.376   9.413  12.550  0.0687 -0.0250  0.3384
 9416PW      WP33183   1.336   9.547  12.535 -0.2968 -0.0477  0.9306
 9416PW      WM33184   1.256   9.351  12.587 -0.2944  0.5218  0.1367
 9417PW       W33185   6.529  10.449   9.016  0.0689 -0.0680  0.1408
 9417PW      WP33186   6.396  10.439   9.059  0.1293 -0.0342  0.3405
 9417PW      WM33187   6.482  10.511   9.133  0.1172 -0.2066  0.2339
 9418PW       W33188   7.644   6.162   0.999  0.2942 -0.0940 -0.2869
 9418PW      WP33189   7.591   6.292   0.997  0.3648 -0.0655 -0.3603
 9418PW      WM33190   7.629   6.097   1.122 -0.8128  0.0499 -0.2983
 9419PW       W33191   7.168   3.975   5.389 -0.0152 -0.0829 -0.2428
 9419PW      WP33192   7.288   3.913   5.350  0.0163 -0.2336  0.0811
 9419PW      WM33193   7.166   4.040   5.265 -0.5227 -0.5002 -0.4716
 9420PW       W33194   7.232  11.863   2.004 -0.6520  0.3700  0.2550
 9420PW      WP33195   7.237  11.939   1.886 -0.0206 -0.1090 -0.0594
 9420PW      WM33196   7.179  11.738   1.968  0.2751  0.0380 -0.1110
 9421PW       W33197   1.357   0.746   2.103 -0.1356 -0.4622  0.2449
 9421PW      WP33198   1.286   0.867   2.106  0.3888 -0.0807 -0.6035
 9421PW      WM33199   1.473   0.678   2.142  0.0910 -0.1563  0.1274
 9422PW       W33200   0.788   6.696   2.681  0.1653  0.2446  0.1573
 9422PW      WP33201   0.786   6.556   2.677 -0.1751  0.2466  0.0347
 9422PW      WM33202   0.666   6.679   2.614  0.0120 -0.3590  0.5465
 9423PW       W33203   4.942   5.504   1.470  0.4063 -0.0146 -0.1246
 9423PW      WP33204   5.064   5.489   1.536  0.4427 -0.5206 -0.2844
 9423PW      WM33205   4.907   5.637   1.442  0.0768 -0.0487  0.1025
 9424PW       W33206   2.261   5.046   0.242 -0.0108 -0.1354  0.0948
 9424PW      WP33207   2.224   4.999   0.115 -0.2786  0.2034  0.0406
 9424PW      WM33208   2.247   5.172   0.184 -0.0655 -0.1933 -0.0204
 9425PW       W33209   9.977   6.346  10.172 -0.2051 -0.0980  0.0581
 9425PW      WP33210  10.054   6.256  10.248 -0.2146  0.1585  0.3816
 9425PW      WM33211   9.954   6.414  10.292  0.1121  0.2213 -0.0538
 9426PW       W33212   7.215   6.894   4.695  0.2422 -0.2109 -0.0801
 9426PW      WP33213   7.082   6.915   4.734  0.2923  0.1593 -0.0947
 9426PW      WM33214   7.240   7.013   4.627 -0.3694 -0.0623 -0.0744
 9427PW       W33215  10.258   4.093  13.101  0.1697  0.0356  0.0735
 9427PW      WP33216  10.170   4.013  13.174 -0.2098  0.2806 -0.0991
 9427PW      WM33217  10.352   4.054  13.004  0.0070  0.5480 -0.3141
 9428PW       W33218   5.156   3.122   4.770 -0.4728  0.1666 -0.3049
 9428PW      WP33219   5.164   3.071   4.901 -0.0257  0.0343 -0.3758
 9428PW      WM33220   5.250   3.019   4.772 -0.0250  0.5510  0.2292
 9429PW       W33221   8.005   6.514  10.886  0.2106 -0.1177 -0.2288
 9429PW      WP33222   7.923   6.532  10.774 -0.4796  0.4047  0.3206
 9429PW      WM33223   8.099   6.617  10.896  0.0258  0.0116  0.3016
 9430PW       W33224   1.162   9.214  10.950 -0.4521 -0.0501 -0.3365
 9430PW      WP33225   1.221   9.124  11.039 -0.2466 -0.1527 -0.5691
 9430PW      WM33226   1.262   9.228  10.852  0.1182  0.0101  0.2160
 9431PW       W33227   5.658   1.873   0.142  0.0852  0.1444 -0.4307
 9431PW      WP33228   5.686   1.993   0.209 -0.0885 -0.0266 -0.0329
 9431PW      WM33229   5.753   1.928   0.055  0.2639 -0.5618 -0.7129
 9432PW       W33230   8.719   2.868  10.039  0.4340  0.0768 -0.1215
 9432PW      WP33231   8.754   2.970   9.950 -0.3355  0.3343 -0.1661
 9432PW      WM33232   8.659   2.934   9.931  0.2881  0.4573  0.1830
 9433PW       W33233  11.966   4.126  11.828  0.0671  0.2237 -0.1605
 9433PW      WP33234  11.967   4.044  11.942 -0.2614 -0.1112 -0.3839
 9433PW      WM33235  11.935   4.140  11.692 -0.3634 -0.1222 -0.1106
 9434PW       W33236  10.643   1.245   4.474 -0.1045 -0.3759  0.0396
 9434PW      WP33237  10.519   1.181   4.480  0.0315 -0.6582 -0.0774
 9434PW      WM33238  10.681   1.171   4.587  0.5151 -0.1569 -0.0050
 9435PW       W33239   7.246   1.340   2.572 -0.1092 -0.3089 -0.3188
 9435PW      WP33240   7.143   1.312   2.482 -0.0899  0.0456 -0.4589
 9435PW      WM33241   7.248   1.479   2.577  0.3056 -0.3184  0.0939
 9436PW       W33242   7.234   0.233   1.214 -0.4378 -0.0629 -0.2672
 9436PW      WP33243   7.178   0.354   1.258  0.0424  0.0253  0.1495
 9436PW      WM33244   7.288   0.305   1.321  0.3008 -0.1275 -0.5671
 9437PW       W33245   1.697   1.979   1.237 -0.1607 -0.2554 -0.0448
 9437PW      WP33246   1.804   1.889   1.223  0.0044  0.0042 -0.5715
 9437PW      WM33247   1.664   2.086   1.320 -0.0676  0.0779 -0.4263
 9438PW       W33248   5.091   5.771   2.230  0.1457  0.6068 -0.0041
 9438PW      WP33249   4.951   5.777   2.218  0.1340  0.2361 -0.1158
 9438PW      WM33250   5.218   5.740   2.280 -0.0135 -0.0935  0.0273
 9439PW       W33251   2.802   1.719  12.828  0.1584 -0.2645  0.6938
 9439PW      WP33252   2.713   1.611  12.826 -0.7601  0.4081 -0.1208
 9439PW      WM33253   2.834   1.774  12.953 -0.0853 -0.1346  0.7026
 9440PW       W33254   0.359   2.035  10.729  0.0293 -0.4670  0.1993
 9440PW      WP33255   0.342   1.915  10.660  0.5301 -0.2166 -0.4072
 9440PW      WM33256   0.296   2.143  10.667  0.2665 -0.3554  0.1441
 9441PW       W33257   3.106  10.369  10.546 -0.4858 -0.2866 -0.1512
 9441PW      WP33258   3.177  10.251  10.523  0.3093  0.0761  0.2405
 9441PW      WM33259   3.038  10.490  10.567 -0.3625 -0.2970  0.4018
 9442PW       W33260   1.129  12.084  13.287 -0.3405  0.1757 -0.3184
 9442PW      WP33261   1.248  12.017  13.317 -0.5483 -0.1472 -0.1910
 9442PW      WM33262   1.052  12.117  13.399  0.4573  0.5783  0.1621
 9443PW       W33263   4.397   4.364   3.086  0.2141 -0.3305  0.0455
 9443PW      WP33264   4.418   4.393   2.951  0.2981 -0.0108  0.1221
 9443PW      WM33265   4.479   4.253   3.109  0.3573 -0.2697 -0.1609
 9444PW       W33266  10.434   3.721   1.481 -0.0090  0.0633 -0.2071
 9444PW      WP33267  10.435   3.790   1.603 -0.1587  0.0211 -0.1813
 9444PW      WM33268  10.548   3.678   1.412  0.0538  0.0693 -0.1069
 9445PW       W33269   2.457   0.140  12.455  0.6167  0.3119  0.4007
 9445PW      WP33270   2.404   0.269  12.468 -0.3900  0.1503 -0.9687
 9445PW      WM33271   2.588   0.091  12.464  0.5509 -0.1377 -0.5099
 9446PW       W33272   1.372   9.331  12.038  0.4752  0.2706 -0.2878
 9446PW      WP33273   1.393   9.218  11.959 -0.7963  0.1669 -0.5810
 9446PW      WM33274   1.291   9.419  12.111  0.3207  0.3098 -0.5037
 9447PW       W33275   3.005   4.375   9.938  0.1827 -0.1820 -0.1325
 9447PW      WP33276   2.905   4.452   9.999  0.0622 -0.8550  0.6011
 9447PW      WM33277   3.138   4.384   9.894  0.0953  0.4061 -0.3183
 9448PW       W33278   0.889   8.435  10.257  0.1122 -0.0215  0.1353
 9448PW      WP33279   0.844   8.501  10.142 -0.0729 -0.3693  0.0011
 9448PW      WM33280   0.919   8.308  10.206 -0.1905  0.0450 -0.2266
 9449PW       W33281   0.277   3.057  12.608  0.3364 -0.2425  0.0700
 9449PW      WP33282   0.210   2.976  12.701 -0.2055 -0.0217 -0.1064
 9449PW      WM33283   0.268   3.186  12.662 -0.1708 -0.1561 -0.1855
 9450PW       W33284   2.163   3.225   4.680 -0.0734 -0.2296  0.2782
 9450PW      WP33285   2.147   3.362   4.661 -0.1767 -0.2192  0.4342
 9450PW      WM33286   2.264   3.162   4.607  0.0820  0.1217  0.1795
 9451PW       W33287   8.596   7.516   1.141 -0.4640  0.1313  0.1411
 9451PW      WP33288   8.557   7.457   1.020 -0.3577  0.4586 -0.0594
 9451PW      WM33289   8.538   7.424   1.229  0.0544 -0.1305  0.2254
 9452PW       W33290   6.932   6.274   9.229  0.6512  0.8670  0.2890
 9452PW      WP33291   7.021   6.172   9.268 -0.2218  0.0154  0.2426
 9452PW      WM33292   6.854   6.250   9.343 -0.1634 -0.1896 -0.3901
 9453PW       W33293   7.641   4.258  13.209  0.3895 -0.3491  0.1600
 9453PW      WP33294   7.618   4.377  13.279  0.1017 -0.2092 -0.1566
 9453PW      WM33295   7.540   4.232  13.302  0.0966 -0.0594 -0.0637
 9454PW       W33296   2.242   8.490   9.963  0.0579 -0.5136 -0.3959
 9454PW      WP33297   2.326   8.599   9.937  0.0994 -0.2336  0.6502
 9454PW      WM33298   2.217   8.505   9.826 -0.0233 -0.5051 -0.3804
 9455PW       W33299   4.531   9.404   0.084 -0.0774 -0.2019  0.1053
 9455PW      WP33300   4.539   9.338  -0.039  0.3313 -0.4461  0.2533
 9455PW      WM33301   4.565   9.444  -0.045 -0.8421  0.1159 -0.0227
 9456PW       W33302   2.410   5.922   4.036  0.2106 -0.6474 -0.2065
 9456PW      WP33303   2.480   5.895   4.154 -0.2088  0.0930  0.2512
 9456PW      WM33304   2.295   5.937   4.114  0.5520  0.0433  0.2132
 9457PW       W33305   8.074  11.656  13.264 -0.0107 -0.2982  0.0112
 9457PW      WP33306   8.167  11.685  13.364 -0.4371 -0.1241  0.3730
 9457PW      WM33307   8.148  11.544  13.301 -0.0610 -0.5103 -0.4937
 9458PW       W33308   1.033  11.684  10.220  0.2520  0.3338 -0.3272
 9458PW      WP33309   0.964  11.804  10.243 -0.1957  0.0027  0.2210
 9458PW      WM33310   1.114  11.591  10.287 -0.5344 -0.1570  0.0252
 9459PW       W33311   9.119   8.015   0.025  0.1274 -0.2472  0.1194
 9459PW      WP33312   9.047   8.038   0.143 -0.4112 -0.0400 -0.2310
 9459PW      WM33313   9.235   7.996   0.101  0.1217  0.1990  0.2560
 9460PW       W33314   0.533   4.673  12.118 -0.1729 -0.3898 -0.2004
 9460PW      WP33315   0.588   4.732  12.004 -0.0999  0.1073  0.0792
 9460PW      WM33316   0.416   4.660  12.194 -0.0603  0.1172  0.0836
 9461PW       W33317   0.608  11.271   1.959  0.2907  0.3227  0.1742
 9461PW      WP33318   0.538  11.228   2.072  0.1629 -0.5497 -0.1961
 9461PW      WM33319   0.656  11.391   2.014  0.1453  0.5714 -0.2233
 9462PW       W33320   8.367  10.049   8.047 -0.1297 -0.0767  0.1180
 9462PW      WP33321   8.405   9.917   8.021 -0.4494 -0.1033 -0.2650
 9462PW      WM33322   8.371  10.157   8.137 -0.1289 -0.0494  0.0853
 9463PW       W33323   2.486   2.732  10.506  0.4543 -0.1029  0.7673
 9463PW      WP33324   2.584   2.714  10.408 -0.3315 -0.3250 -0.0375
 9463PW      WM33325   2.486   2.597  10.544 -0.9579 -0.3394  0.2253
 9464PW       W33326   7.541   4.872   1.116 -0.2883 -0.5533 -0.6360
 9464PW      WP33327   7.480   4.996   1.138  0.6718 -0.1351  0.0144
 9464PW      WM33328   7.528   4.801   1.235 -0.1232  0.4740  0.0622
 9465PW       W33329   8.662   0.762   0.580 -0.1457 -0.0171  0.1076
 9465PW      WP33330   8.600   0.885   0.554 -0.0127 -0.0977 -0.7123
 9465PW      WM33331   8.611   0.705   0.698 -0.1551  0.4404  0.3358
 9466PW       W33332  10.619   5.026  12.213 -0.5042 -0.1617 -0.3473
 9466PW      WP33333  10.493   4.970  12.191 -0.6845  0.1649 -0.1925
 9466PW      WM33334  10.587   5.053  12.347  0.2710 -0.0448 -0.1605
 9467PW       W33335   7.258   6.462   1.715 -0.1647  0.2485  0.0821
 9467PW      WP33336   7.264   6.559   1.614  0.2767 -0.3263 -0.4815
 9467PW      WM33337   7.210   6.482   1.845 -0.0146 -0.0068  0.1808
 9468PW       W33338  10.160  11.847   4.472 -0.4827  0.1344 -0.2129
 9468PW      WP33339  10.162  11.713   4.514  0.4534  0.0407 -0.4345
 9468PW      WM33340  10.205  11.924   4.580 -0.0820  0.1666 -0.3912
 9469PW       W33341   0.704  10.121   8.626  0.1335  0.2302 -0.0570
 9469PW      WP33342   0.756  10.002   8.575  0.1896  0.1421  0.2005
 9469PW      WM33343   0.783  10.227   8.580  0.1287  0.0499 -0.5018
 9470PW       W33344   9.447   6.892  12.540 -0.0355  0.3164  0.3878
 9470PW      WP33345   9.555   6.933  12.619  0.1579  0.2339  0.1736
 9470PW      WM33346   9.471   6.919  12.405  0.2429  0.3813  0.4458
 9471PW       W33347  11.487   0.199  12.037  0.5141  0.1261 -0.2883
 9471PW      WP33348  11.382   0.291  12.048 -0.0427 -0.5139  0.1475
 9471PW      WM33349  11.421   0.118  11.944 -0.3081  0.3773  0.0366
 9472PW       W33350   0.419   7.076  11.250  0.5598  0.1198 -0.1210
 9472PW      WP33351   0.345   7.194  11.242  0.1589 -0.0981  0.1742
 9472PW      WM33352   0.480   7.089  11.375 -0.0060  0.1406  0.1665
 9473PW       W33353   4.367   5.261   4.543 -0.2647 -0.0709  0.3065
 9473PW      WP33354   4.383   5.377   4.619 -0.0206  0.3412 -0.3282
 9473PW      WM33355   4.333   5.326   4.423 -0.0281 -0.0532  0.2460
 9474PW       W33356   3.730   5.392   3.972  0.1315  0.0204  0.1011
 9474PW      WP33357   3.634   5.493   3.980  0.2944  0.1748  0.1377
 9474PW      WM33358   3.861   5.358   3.936  0.1653  0.2086  0.0426
 9475PW       W33359   5.012   9.094   0.209 -0.4064  0.4043 -0.6195
 9475PW      WP33360   4.968   8.995   0.120 -0.5998 -0.0920 -0.0045
 9475PW      WM33361   5.124   9.108   0.126 -0.1088  0.0202 -0.2993
 9476PW       W33362  11.553   7.281   8.609  0.1654  0.3111  0.0578
 9476PW      WP33363  11.431   7.226   8.570  0.2380  0.3318 -0.2090
 9476PW      WM33364  11.655   7.188   8.583 -0.3095 -0.1886 -0.1053
 9477PW       W33365   8.528   9.974   2.194 -0.0298  0.3139 -0.2537
 9477PW      WP33366   8.653  10.008   2.143 -0.0422  0.1071 -0.4262
 9477PW      WM33367   8.463   9.868   2.130 -0.0458  0.1783 -0.0208
 9478PW       W33368   9.923   5.199   3.536 -0.0943  0.0309 -0.4684
 9478PW      WP33369  10.049   5.141   3.522  0.2190  0.2609  0.7609
 9478PW      WM33370   9.851   5.174   3.654 -0.0674  0.2979 -0.3921
 9479PW       W33371   6.896   7.407  12.792 -0.4410 -0.6405  0.3641
 9479PW      WP33372   6.992   7.325  12.733  0.2475  0.2449  0.1510
 9479PW      WM33373   6.814   7.463  12.692 -0.0591  0.0135  0.3887
 9480PW       W33374   4.420   8.690   3.623 -0.2909  0.0602  0.0138
 9480PW      WP33375   4.542   8.678   3.556 -0.1125  0.3837  0.2632
 9480PW      WM33376   4.373   8.822   3.626 -0.3407  0.0484 -0.1899
 9481PW       W33377   7.342   5.872   3.423 -0.1645 -0.0631  0.0807
 9481PW      WP33378   7.416   5.930   3.526  0.0320  0.1429 -0.1677
 9481PW      WM33379   7.248   5.938   3.342 -0.0585  0.1939  0.1598
 9482PW       W33380   3.878   3.043   2.614  0.1624  0.1501  0.2523
 9482PW      WP33381   3.882   2.974   2.736 -0.5114 -0.3378  0.0332
 9482PW      WM33382   4.005   3.100   2.612  0.1486  0.1861  0.3798
 9483PW       W33383   8.501   9.674   9.419  0.3399 -0.1416  0.0094
 9483PW      WP33384   8.584   9.679   9.531 -0.0323  0.0104  0.2856
 9483PW      WM33385   8.453   9.787   9.487 -0.0783 -0.3062 -0.0010
 9484PW       W33386   4.049   6.051   4.502  0.1992  0.0537 -0.2035
 9484PW      WP33387   3.936   6.124   4.539  0.2069  0.1076 -0.2846
 9484PW      WM33388   4.134   5.989   4.410  0.6422 -0.1070  0.2894
 9485PW       W33389   5.812  11.668   4.846 -0.0810 -0.3726  0.4274
 9485PW      WP33390   5.693  11.607   4.804  0.0691 -0.4882  0.1527
 9485PW      WM33391   5.709  11.700   4.935 -0.2343  0.0859  0.1032
 9486PW       W33392   7.395   3.567   9.443 -0.0764  0.1730  0.0174
 9486PW      WP33393   7.497   3.541   9.350 -0.1555 -0.1755  0.0213
 9486PW      WM33394   7.349   3.462   9.524  0.2935 -0.2130 -0.2499
 9487PW       W33395   1.646   5.256  10.945  0.3838 -0.1603  0.3350
 9487PW      WP33396   1.669   5.145  10.863  0.3860 -0.0524  0.1887
 9487PW      WM33397   1.519   5.215  10.985  0.1383 -0.2540 -0.4613
 9488PW       W33398   4.611   8.269   3.768  0.2217 -0.1197 -0.2064
 9488PW      WP33399   4.707   8.309   3.674  0.1819  0.5933  0.0298
 9488PW      WM33400   4.555   8.182   3.861  0.0846 -0.2123 -0.3727
 9489PW       W33401   6.369   6.296   4.019  0.1975 -0.1338  0.4018
 9489PW      WP33402   6.306   6.246   4.133 -0.4691 -0.1375  0.0532
 9489PW      WM33403   6.508   6.277   4.008  0.1639 -0.1875 -0.0261
 9490PW       W33404   4.932  10.280   2.114 -0.1462 -0.1633  0.5580
 9490PW      WP33405   4.993  10.235   1.996  0.0268  0.0807  0.5493
 9490PW      WM33406   4.928  10.420   2.126  0.0829 -0.1276  0.2848
 9491PW       W33407   8.954   7.980  12.711 -0.2824  0.0885 -0.2081
 9491PW      WP33408   9.040   7.893  12.642  0.2529 -0.0809  0.6006
 9491PW      WM33409   8.957   8.111  12.663  0.3498  0.1785  0.0241
 9492PW       W33410   4.751   0.554  12.452  0.4996  0.1971  0.5740
 9492PW      WP33411   4.856   0.597  12.371  0.5534 -0.2357  0.4011
 9492PW      WM33412   4.674   0.458  12.519 -0.1205 -0.1732 -0.5416
 9493PW       W33413   1.098   7.216   8.530 -0.1144 -0.0018 -0.2535
 9493PW      WP33414   1.108   7.334   8.455 -0.2075  0.2481  0.1185
 9493PW      WM33415   1.235   7.199   8.554 -0.1832 -0.5271 -0.1773
 9494PW       W33416   6.542   7.166   8.378  0.4264 -0.1269 -0.6656
 9494PW      WP33417   6.484   7.289   8.343 -0.0073  0.0383  0.4269
 9494PW      WM33418   6.675   7.138   8.410  0.2723  0.0061  0.2078
 9495PW       W33419   5.292   4.444  11.402 -0.1794 -0.2485  0.3412
 9495PW      WP33420   5.211   4.546  11.455 -0.4416 -0.0746 -0.3331
 9495PW      WM33421   5.384   4.541  11.360 -0.2951 -0.1849  0.2275
 9496PW       W33422   6.275  10.537   9.571 -0.0726 -0.0107 -0.1355
 9496PW      WP33423   6.229  10.611   9.461 -0.1255 -0.3437 -0.3443
 9496PW      WM33424   6.295  10.602   9.693  0.4232 -0.4158  0.0166
 9497PW       W33425   1.959   9.233   9.456 -0.0023  0.1232  0.0189
 9497PW      WP33426   1.878   9.321   9.529 -0.2902 -0.0558 -0.0743
 9497PW      WM33427   2.014   9.128   9.382 -0.0338  0.0678  0.0742
 9498PW       W33428   9.349   7.613   0.479  0.0841  0.0709  0.3063
 9498PW      WP33429   9.280   7.499   0.434  0.0399 -0.0208  0.5968
 9498PW      WM33430   9.384   7.687   0.365 -0.2299 -0.2243  0.0061
 9499PW       W33431   9.856   2.619   1.387 -0.3733  0.0791 -0.0917
 9499PW      WP33432   9.724   2.662   1.396 -0.3462  0.0971  0.2907
 9499PW      WM33433   9.939   2.596   1.498 -0.0880  0.8239 -0.1206
 9500PW       W33434   8.369   3.010   8.844  0.1856  0.0827 -0.2393
 9500PW      WP33435   8.347   3.119   8.928  0.2053  0.0254 -0.1588
 9500PW      WM33436   8.381   2.916   8.948  0.0383  0.4505  0.1232
 9501PW       W33437   1.010   6.040   4.527  0.2122 -0.2037 -0.1064
 9501PW      WP33438   1.078   6.140   4.597  0.2377 -0.2692 -0.0356
 9501PW      WM33439   0.924   5.998   4.425 -0.2888  0.0470  0.1894
 9502PW       W33440   7.312   9.248  10.649 -0.1659  0.5496 -0.1355
 9502PW      WP33441   7.173   9.268  10.643 -0.2218  0.4009  0.3579
 9502PW      WM33442   7.448   9.271  10.669 -0.0964  0.1483 -0.1038
 9503PW       W33443  10.430   2.638   8.209 -0.0012  0.2420  0.1875
 9503PW      WP33444  10.544   2.698   8.265  0.1396 -0.0775  0.2546
 9503PW      WM33445  10.417   2.627   8.348  0.1708 -0.0669  0.1836
 9504PW       W33446   5.001  10.861  12.636 -0.4571  0.0278 -0.2339
 9504PW      WP33447   5.028  10.723  12.628  0.2780  0.1231  0.1490
 9504PW      WM33448   5.141  10.868  12.635 -0.4500 -0.0448  0.0312
 9505PW       W33449   7.054   4.531   0.003 -0.0241  0.2337 -0.2047
 9505PW      WP33450   7.181   4.541   0.060 -0.0565 -0.5769  0.0747
 9505PW      WM33451   6.922   4.552   0.045  0.0180 -0.2733  0.2423
 9506PW       W33452   5.875   2.563   1.657 -0.8687  0.0002  0.1286
 9506PW      WP33453   5.863   2.635   1.538  0.2955 -0.0632 -0.0855
 9506PW      WM33454   5.924   2.442   1.710 -0.4473 -0.0091 -0.2515
 9507PW       W33455   1.152   0.344   2.916  0.2804  0.0187  0.0679
 9507PW      WP33456   1.051   0.289   2.837  0.3946  0.2888 -0.2759
 9507PW      WM33457   1.145   0.455   2.832 -0.0841  0.2968  0.4440
 9508PW       W33458   8.119   5.126   5.555  0.4832 -0.2642  0.6195
 9508PW      WP33459   8.230   5.153   5.473  0.0071 -0.1165 -0.0187
 9508PW      WM33460   8.186   5.043   5.646  0.5156 -0.6965  0.2207
 9509PW       W33461   6.079  11.565   0.828 -0.2610 -0.1349  0.0952
 9509PW      WP33462   6.161  11.584   0.940  0.2028 -0.0722 -0.2405
 9509PW      WM33463   5.998  11.678   0.813 -0.2007 -0.1214 -0.1437
 9510PW       W33464   5.103   5.818   9.270  0.6638 -0.2199  0.0726
 9510PW      WP33465   5.120   5.694   9.331  0.1305 -0.2860  0.1140
 9510PW      WM33466   5.174   5.939   9.273  0.3778 -0.0510  0.2347
 9511PW       W33467   2.090  11.477  12.382 -0.3974 -0.2749 -0.1188
 9511PW      WP33468   1.969  11.523  12.436 -0.3636  0.3250 -0.5000
 9511PW      WM33469   2.088  11.355  12.450  0.0713 -0.2951 -0.1237
 9512PW       W33470   9.379  11.045   5.083  0.1871  0.2863  0.1484
 9512PW      WP33471   9.493  10.969   5.056 -0.1139 -0.1424  0.0207
 9512PW      WM33472   9.287  11.137   5.135  0.0851  0.1739  0.1712
 9513PW       W33473   0.655   7.987   8.463  0.1550 -0.1517  0.0868
 9513PW      WP33474   0.718   8.107   8.496 -0.0360  0.1293 -0.4976
 9513PW      WM33475   0.549   8.015   8.549  0.1419 -0.3642  0.1429
 9514PW       W33476   0.982   9.447  12.254  0.3887  0.2464  0.0128
 9514PW      WP33477   1.097   9.448  12.174  0.2383 -0.2649 -0.2252
 9514PW      WM33478   0.941   9.581  12.248  0.3433  0.2247 -0.1838
 9515PW       W33479   2.445   2.691  11.011  0.0169  0.2173 -0.6056
 9515PW      WP33480   2.479   2.818  10.964  0.0021  0.3686 -0.2280
 9515PW      WM33481   2.335   2.610  11.042  0.1585  0.2257 -0.0215
 9516PW       W33482   5.611  10.386   1.570  0.0676 -0.5148 -0.1762
 9516PW      WP33483   5.625  10.248   1.587 -0.0309 -0.4703  0.3521
 9516PW      WM33484   5.549  10.399   1.445  0.3481 -0.2537 -0.2923
 9517PW       W33485   2.423  10.135  13.173 -0.2932  0.3847 -0.0480
 9517PW      WP33486   2.463  10.269  13.180 -0.0374  0.2956  0.3841
 9517PW      WM33487   2.327  10.038  13.203  0.3017 -0.1957  0.1058
 9518PW       W33488   6.827   7.134  11.287  0.0661  0.3392 -0.0030
 9518PW      WP33489   6.769   7.196  11.175 -0.1361  0.3116  0.0857
 9518PW      WM33490   6.785   7.172  11.415 -0.5685  0.0428 -0.1036
 9519PW       W33491   1.230  10.284   8.875 -0.0619  0.0978 -0.0292
 9519PW      WP33492   1.116  10.287   8.956  0.2457 -0.0901  0.4365
 9519PW      WM33493   1.365  10.264   8.910 -0.1445 -0.2763  0.0988
 9520PW       W33494   4.365   7.994  12.062  0.0158 -0.2840 -0.1672
 9520PW      WP33495   4.494   8.017  12.012 -0.1706  0.1061 -0.4969
 9520PW      WM33496   4.343   8.073  12.176  0.2157  0.5120 -0.6391
 9521PW       W33497   3.967   6.121  10.099  0.1517  0.2242 -0.2528
 9521PW      WP33498   3.927   6.243  10.154  0.5860  0.4534 -0.4227
 9521PW      WM33499   3.850   6.196  10.080  0.2034  0.3809  0.0235
 9522PW       W33500   6.953   5.179  10.229 -0.1979 -0.3588 -0.2387
 9522PW      WP33501   6.969   5.065  10.150  0.0609 -0.4458 -0.0696
 9522PW      WM33502   6.923   5.089  10.126 -0.1774 -0.7092  0.0497
 9523PW       W33503   3.840   1.059   1.457  0.3702  0.2293 -0.0142
 9523PW      WP33504   3.753   1.093   1.353  0.3326 -0.0008 -0.0602
 9523PW      WM33505   3.761   0.954   1.409  0.2594  0.2759  0.0642
 9524PW       W33506   4.736   9.899  10.369 -0.2178 -0.1848 -0.3275
 9524PW      WP33507   4.700  10.034  10.385 -0.5986 -0.3143 -0.0189
 9524PW      WM33508   4.705   9.781  10.438  0.1272 -0.0593  0.0629
 9525PW       W33509   8.675   7.260   9.362 -0.0723  0.0498  0.4980
 9525PW      WP33510   8.619   7.169   9.272  0.1075  0.2154  0.2086
 9525PW      WM33511   8.802   7.301   9.406  0.4732 -0.3790 -0.4949
 9526PW       W33512   1.183   1.967  13.044 -0.0865 -0.3074 -0.1265
 9526PW      WP33513   1.302   2.031  13.007 -0.2194  0.2896  0.3715
 9526PW      WM33514   1.170   2.094  12.986 -0.1433 -0.2520  0.0052
 9527PW       W33515   8.898   0.532   3.314 -0.3493 -0.2211 -0.2339
 9527PW      WP33516   8.849   0.476   3.432  0.0382  0.1532  0.1242
 9527PW      WM33517   8.777   0.596   3.286 -0.2289  0.2212  0.1837
 9528PW       W33518   8.700   9.370   9.990  0.3387  0.3327 -0.2998
 9528PW      WP33519   8.578   9.359   9.923  0.0585 -0.3861  0.2598
 9528PW      WM33520   8.793   9.269   9.960 -0.1276 -0.3062  0.2327
 9529PW       W33521   3.788  11.203   4.424 -0.0470  0.1546  0.0037
 9529PW      WP33522   3.713  11.294   4.499  0.2176 -0.0768  0.5789
 9529PW      WM33523   3.678  11.132   4.375 -0.0542  0.4936 -0.5085
 9530PW       W33524   2.879   2.286   0.550  0.0753 -0.0630  0.0987
 9530PW      WP33525   2.893   2.343   0.423 -0.1114 -0.0601  0.0784
 9530PW      WM33526   2.784   2.314   0.648  0.6436  0.1554  0.6180
 9531PW       W33527   1.719   2.370  10.885  0.0214 -0.3789  0.3475
 9531PW      WP33528   1.580   2.383  10.883  0.0517  0.1814  0.7205
 9531PW      WM33529   1.783   2.374  10.760 -0.4882  0.0670  0.0828
 9532PW       W33530   7.003   0.355  10.294  0.3030  0.0965 -0.4903
 9532PW      WP33531   7.034   0.219  10.311  0.1644  0.1407  0.2657
 9532PW      WM33532   6.882   0.404  10.245 -0.2005 -0.1808  0.3789
 9533PW       W33533   1.225   1.519   0.571  0.3310  0.2432  0.6771
 9533PW      WP33534   1.327   1.558   0.483 -0.1468 -0.5435 -0.3168
 9533PW      WM33535   1.087   1.542   0.579  0.1645 -0.2918 -0.1085
 9534PW       W33536   0.242   7.940   2.116 -0.1225 -0.1858  0.4556
 9534PW      WP33537   0.309   8.052   2.066 -0.4483 -0.2146 -0.0854
 9534PW      WM33538   0.329   7.833   2.144  0.2773  0.0137  0.0443
 9535PW       W33539   0.963   7.199   2.953 -0.0562  0.2388 -0.2279
 9535PW      WP33540   0.937   7.111   3.059 -0.0936  0.1037 -0.3479
 9535PW      WM33541   1.025   7.322   2.977  0.1031  0.0015  0.8022
 9536PW       W33542  10.975   0.688   2.015  0.1288  0.3104  0.1817
 9536PW      WP33543  10.891   0.624   2.107 -0.0991  0.3717  0.0192
 9536PW      WM33544  10.879   0.771   1.957  0.1659  0.4720  0.3434
 9537PW       W33545   9.784   0.686   2.918 -0.1796  0.3466 -0.1079
 9537PW      WP33546   9.751   0.755   2.801 -0.1527  0.4247 -0.0689
 9537PW      WM33547   9.896   0.630   2.857 -0.3891 -0.1217 -0.0880
 9538PW       W33548   3.205   1.725  10.845 -0.0087 -0.1112  0.3939
 9538PW      WP33549   3.195   1.602  10.780  0.0430  0.0250  0.1210
 9538PW      WM33550   3.311   1.796  10.788 -0.2169  0.0698  0.2251
 9539PW       W33551   2.165   8.257   4.048  0.6994 -0.6308  0.2395
 9539PW      WP33552   2.178   8.360   3.954  0.5808 -0.6362  0.2161
 9539PW      WM33553   2.225   8.350   4.134 -0.5187  0.4600  0.0626
 9540PW       W33554   4.706  10.989   9.861  0.0552 -0.1584  0.0217
 9540PW      WP33555   4.774  10.883   9.923  0.1467  0.0020  0.1988
 9540PW      WM33556   4.755  10.958   9.734  0.0534 -0.5209  0.1042
 9541PW       W33557   0.662   8.746  11.983  0.2306  0.2855 -0.2297
 9541PW      WP33558   0.525   8.727  12.004  0.4171 -0.7332  0.4328
 9541PW      WM33559   0.622   8.697  12.107  0.1618 -0.1348 -0.4083
 9542PW       W33560   5.470   9.815  11.019 -0.0034  0.0630  0.1207
 9542PW      WP33561   5.432   9.781  11.149  0.2198  0.5934  0.3423
 9542PW      WM33562   5.347   9.753  11.041  0.2616 -0.3967  0.3617
 9543PW       W33563   4.470   9.713   9.201  0.0652  0.0634  0.0143
 9543PW      WP33564   4.551   9.808   9.138 -0.2144  0.1122 -0.2801
 9543PW      WM33565   4.399   9.593   9.183 -0.1432  0.2436 -0.4486
 9544PW       W33566   1.468   0.715   0.082 -0.4245 -0.0712  0.1397
 9544PW      WP33567   1.435   0.760   0.211  0.1952  0.2734  0.1962
 9544PW      WM33568   1.442   0.607  -0.003 -0.0653 -0.0042 -0.0638
 9545PW       W33569   4.128   9.360   1.277 -0.0053  0.1329  0.5271
 9545PW      WP33570   4.228   9.281   1.333  0.2034 -0.0604 -0.0855
 9545PW      WM33571   4.176   9.344   1.147 -0.1020  0.3601  0.4598
 9546PW       W33572   4.714   6.648   8.327 -0.1548  0.1162  0.0871
 9546PW      WP33573   4.652   6.572   8.427 -0.3494  0.2780  0.0922
 9546PW      WM33574   4.608   6.717   8.386  0.0163  0.4524  0.0150
 9547PW       W33575   1.411  10.085  10.421  0.0537  0.1394 -0.5396
 9547PW      WP33576   1.273  10.098  10.437  0.0532 -0.3749  0.1158
 9547PW      WM33577   1.516  10.011  10.479 -0.0310  0.3762 -0.0628
 9548PW       W33578   7.346   0.112   9.967  0.2445  0.4302 -0.1376
 9548PW      WP33579   7.212   0.108  10.008  0.3631 -0.3400  0.2644
 9548PW      WM33580   7.432   0.003   9.949  0.3615  0.5510 -0.3250
 9549PW       W33581  11.804   2.802   4.738  0.3930 -0.2297 -0.1903
 9549PW      WP33582  11.726   2.787   4.853  0.2244  0.4690 -0.1889
 9549PW      WM33583  11.914   2.780   4.655  0.7236  0.4085  0.0420
 9550PW       W33584   7.560   5.631   2.543 -0.1123 -0.6326  0.2574
 9550PW      WP33585   7.534   5.696   2.664  0.1007 -0.1567  0.0606
 9550PW      WM33586   7.436   5.605   2.483 -0.0109 -0.0048 -0.2826
 9551PW       W33587   5.027   6.302  10.555 -0.5165  0.1622  0.3983
 9551PW      WP33588   5.034   6.337  10.690 -0.2065  0.1877  0.3786
 9551PW      WM33589   4.896   6.283  10.509 -0.3300  0.5010 -0.3584
 9552PW       W33590   1.242  11.012  12.148 -0.1185  0.0036  0.0430
 9552PW      WP33591   1.307  11.047  12.030  0.3977 -0.0693  0.2895
 9552PW      WM33592   1.306  11.131  12.184 -0.2963  0.1997 -0.2709
 9553PW       W33593   5.797   6.656   2.296 -0.2482  0.3253 -0.2538
 9553PW      WP33594   5.664   6.612   2.307 -0.2013  0.1605 -0.3363
 9553PW      WM33595   5.747   6.570   2.198 -1.0389  0.1619  0.2465
 9554PW       W33596   6.376   5.727   1.788  0.2843  0.0773  0.1871
 9554PW      WP33597   6.410   5.732   1.924  0.1548 -0.2945  0.2367
 9554PW      WM33598   6.467   5.695   1.686  0.0125 -0.0538 -0.0201
 9555PW       W33599   9.212  11.710   0.978 -0.2495  0.0945  0.3396
 9555PW      WP33600   9.147  11.618   1.061 -0.8339  0.5455  0.4183
 9555PW      WM33601   9.255  11.816   1.060 -0.3068  0.0862  0.3813
 9556PW       W33602   4.700   3.524   9.556  0.4503 -0.3979  0.0406
 9556PW      WP33603   4.611   3.434   9.496 -0.2165  0.2943 -0.0935
 9556PW      WM33604   4.640   3.566   9.675  0.5463 -0.1191 -0.0040
 9557PW       W33605   3.780   8.033   1.334 -0.5667 -0.4323  0.1071
 9557PW      WP33606   3.888   8.036   1.423 -0.0608  0.2748 -0.4762
 9557PW      WM33607   3.694   8.143   1.324 -0.2174 -0.1718 -0.1550
 9558PW       W33608   1.062   2.328  12.739 -0.4291  0.1688  0.1528
 9558PW      WP33609   1.037   2.191  12.752 -0.2175  0.1399  0.2947
 9558PW      WM33610   0.977   2.296  12.633  0.3586  0.0424 -0.4887
 9559PW       W33611   5.715   9.674   3.601  0.2476  0.0024  0.0134
 9559PW      WP33612   5.662   9.783   3.532  0.1466 -0.1345 -0.1297
 9559PW      WM33613   5.796   9.675   3.715  0.3085  0.1238 -0.0307
 9560PW       W33614   4.179  11.846   1.900  0.0622  0.1239  0.1366
 9560PW      WP33615   4.165  11.722   1.963  0.0913 -0.0658 -0.2224
 9560PW      WM33616   4.062  11.888   1.836 -0.0534 -0.4665 -0.0685
 9561PW       W33617   3.489   5.476  12.475  0.2415 -0.0272  0.2289
 9561PW      WP33618   3.593   5.526  12.395  0.2690 -0.1234  0.2047
 9561PW      WM33619   3.427   5.535  12.586 -0.2313 -0.1687  0.0539
 9562PW       W33620   6.528   7.354  13.133 -0.0403 -0.1409 -0.0403
 9562PW      WP33621   6.436   7.284  13.053  0.0860  0.2138 -0.5176
 9562PW      WM33622   6.575   7.486  13.136  0.0281 -0.1699  0.3799
 9563PW       W33623   3.195   0.196  12.655 -0.2928  0.2771  0.1093
 9563PW      WP33624   3.249   0.287  12.746 -0.2243  0.3732 -0.0255
 9563PW      WM33625   3.196   0.274  12.539 -0.3412  0.5712  0.3012
 9564PW       W33626  10.635   3.829  11.917  0.1035  0.4027  0.1233
 9564PW      WP33627  10.528   3.805  12.004 -0.1072 -0.7552 -0.3735
 9564PW      WM33628  10.762   3.821  11.975  0.2656 -0.2101 -0.2737
 9565PW       W33629   1.956   4.851  11.512  0.0676 -0.3857  0.5214
 9565PW      WP33630   2.055   4.785  11.438 -0.1043 -0.0309 -0.0484
 9565PW      WM33631   1.963   4.989  11.530  0.0340 -0.2039 -0.5539
 9566PW       W33632   6.123  10.391   3.874 -0.3625  0.2524  0.2062
 9566PW      WP33633   6.026  10.290   3.861  0.0229 -0.1213  0.1080
 9566PW      WM33634   6.128  10.468   3.990 -0.3764 -0.1432  0.4795
 9567PW       W33635   1.288   6.814   2.722  0.3861 -0.0994 -0.3646
 9567PW      WP33636   1.366   6.910   2.787  0.3369 -0.2974  0.0003
 9567PW      WM33637   1.386   6.716   2.701  0.3901 -0.1489 -0.1303
 9568PW       W33638   7.108   3.043   2.545 -0.3620 -0.2554  0.5176
 9568PW      WP33639   6.989   3.108   2.509 -0.0850 -0.0154 -0.0198
 9568PW      WM33640   7.185   3.111   2.639 -0.3909  0.3391  0.1425
 9569PW       W33641   2.875   7.637   0.138 -0.3181  0.6348  0.3529
 9569PW      WP33642   2.898   7.608   0.273 -0.1006  0.0980  0.2120
 9569PW      WM33643   2.864   7.727   0.032 -0.2683  0.0799 -0.1440
 9570PW       W33644  10.435   1.002   9.856 -0.3613 -0.0394 -0.4797
 9570PW      WP33645  10.541   0.949   9.782 -0.3542 -0.2171 -0.3470
 9570PW      WM33646  10.487   1.104   9.937  0.5419 -0.4918 -0.4268
 9571PW       W33647   6.518   5.964  12.323 -0.1666 -0.3685  0.1020
 9571PW      WP33648   6.578   6.027  12.433 -0.1543  0.4351 -0.3230
 9571PW      WM33649   6.526   5.874  12.217 -0.4428 -0.2544 -0.0202
 9572PW       W33650   9.432   9.808   9.634 -0.3823 -0.4139 -0.2190
 9572PW      WP33651   9.308   9.792   9.571 -0.4381  0.0438 -0.2377
 9572PW      WM33652   9.515   9.817   9.522 -0.0876  0.1831  0.0240
 9573PW       W33653  11.745   6.309  10.195  0.2641 -0.1029  0.1347
 9573PW      WP33654  11.641   6.298  10.289 -0.2008  0.0804 -0.3341
 9573PW      WM33655  11.674   6.419  10.145 -0.0458 -0.5072 -0.3665
 9574PW       W33656   5.601   8.749   5.796  0.3143 -0.0738  0.3745
 9574PW      WP33657   5.634   8.882   5.766 -0.0529  0.0523  0.5036
 9574PW      WM33658   5.639   8.702   5.670 -0.1408  0.0964  0.1662
 9575PW       W33659   0.314   8.125   3.031  0.3177  0.3047 -0.3800
 9575PW      WP33660   0.419   8.148   2.942  0.2473 -0.2493 -0.6254
 9575PW      WM33661   0.405   8.105   3.136  0.2586 -0.3332 -0.4287
 9576PW       W33662   2.233   6.459   5.307  0.1721  0.1722 -0.1904
 9576PW      WP33663   2.246   6.364   5.205  0.1123 -0.1429  0.0882
 9576PW      WM33664   2.146   6.569   5.306 -0.2967 -0.1654  0.3179
 9577PW       W33665   9.561   5.375   1.047 -0.2954 -0.3254 -0.4082
 9577PW      WP33666   9.536   5.253   1.111  0.0331 -0.2320 -0.0811
 9577PW      WM33667   9.672   5.296   1.019  0.2577  0.2502  0.0056
 9578PW       W33668   7.155   4.169   9.628  0.2091 -0.2439  0.0445
 9578PW      WP33669   7.256   4.198   9.535 -0.0864  0.1923 -0.1581
 9578PW      WM33670   7.232   4.101   9.532 -0.2541 -0.2846 -0.3224
 9579PW       W33671  11.480   9.723  12.402 -0.0848 -0.0432 -0.2253
 9579PW      WP33672  11.424   9.852  12.406 -0.0265 -0.0238  0.0241
 9579PW      WM33673  11.405   9.670  12.297 -0.3459  0.1492 -0.1404
 9580PW       W33674   9.942   2.377  11.618 -0.6245 -0.2511  0.2461
 9580PW      WP33675   9.869   2.286  11.541 -0.3120 -0.3194  0.0215
 9580PW      WM33676  10.074   2.420  11.603 -0.4578 -0.5933  0.6265
 9581PW       W33677   9.385   9.325   9.696 -0.2121 -0.1528 -0.1733
 9581PW      WP33678   9.395   9.461   9.729 -0.2242 -0.2695  0.3513
 9581PW      WM33679   9.404   9.399   9.579  0.0957 -0.1316 -0.1154
 9582PW       W33680   9.284  11.291   2.720  0.0208 -0.1591  0.4842
 9582PW      WP33681   9.224  11.282   2.846 -0.5869 -0.2152  0.2096
 9582PW      WM33682   9.363  11.204   2.644 -0.5211 -0.1332 -0.1567
 9583PW       W33683   6.363   4.804   4.747 -0.0963 -0.3015  0.6486
 9583PW      WP33684   6.503   4.817   4.748 -0.1079  0.1396 -0.0690
 9583PW      WM33685   6.275   4.893   4.686  0.0234 -0.1015  0.7625
 9584PW       W33686   6.966  11.587   0.205 -0.1490 -0.4763 -0.3529
 9584PW      WP33687   7.073  11.513   0.155  0.4716 -0.0390  0.2425
 9584PW      WM33688   6.861  11.617   0.293  0.4155  0.3657  0.0996
 9585PW       W33689  11.089   7.994   2.124  0.0775  0.1730  0.3133
 9585PW      WP33690  11.048   8.037   2.251  0.4884  0.5119  0.3426
 9585PW      WM33691  11.181   7.914   2.055 -0.1015  0.3699 -0.1797
 9586PW       W33692   3.401   6.773   8.694 -0.1522 -0.1189 -0.1416
 9586PW      WP33693   3.511   6.707   8.638 -0.1837 -0.3334  0.0429
 9586PW      WM33694   3.290   6.850   8.730 -0.0895 -0.1527  0.1366
 9587PW       W33695   1.120   6.676   0.599 -0.0915  0.3570 -0.0243
 9587PW      WP33696   1.189   6.771   0.676  0.0381  0.0961  0.1910
 9587PW      WM33697   1.030   6.584   0.654 -0.0867  0.2499 -0.1943
 9588PW       W33698   6.291   7.646   9.416 -0.3873  0.1938 -0.0664
 9588PW      WP33699   6.389   7.664   9.317 -0.0394 -0.1468  0.2006
 9588PW      WM33700   6.380   7.650   9.525 -0.3384  0.0040 -0.0974
 9589PW       W33701  10.343   6.828  11.158  0.1499  0.0329 -0.1490
 9589PW      WP33702  10.277   6.951  11.162  0.2623  0.0896 -0.0040
 9589PW      WM33703  10.362   6.726  11.253  0.2160  0.3894  0.2359
 9590PW       W33704   1.250   9.085   2.917 -0.1195 -0.0091  0.1035
 9590PW      WP33705   1.357   9.012   2.865 -0.0530 -0.2411  0.5439
 9590PW      WM33706   1.197   9.088   3.047  0.0054 -0.1463  0.1594
 9591PW       W33707   3.812   9.492   9.062  0.2247  0.4338 -0.1958
 9591PW      WP33708   3.824   9.377   8.983  0.3586  0.4752 -0.2380
 9591PW      WM33709   3.736   9.486   8.945 -0.2629 -0.1868  0.1255
 9592PW       W33710   2.811   6.647   9.914 -0.6702  0.4017  0.6853
 9592PW      WP33711   2.723   6.580   9.827  0.0986 -0.0668  0.2031
 9592PW      WM33712   2.938   6.693   9.951 -0.1777 -0.3592  0.1205
 9593PW       W33713   2.554   7.617  13.078 -0.1497 -0.3172 -0.0156
 9593PW      WP33714   2.688   7.615  13.036 -0.0398  0.2332  0.2674
 9593PW      WM33715   2.416   7.614  13.100 -0.1752 -0.2770 -0.1601
 9594PW       W33716   6.984   6.145   2.171 -0.5562  0.1032  0.3064
 9594PW      WP33717   7.024   6.022   2.225  0.3549  0.2967  0.1582
 9594PW      WM33718   7.082   6.236   2.213 -0.4479 -0.0617  0.4215
 9595PW       W33719  10.425   0.261   2.646  0.0623 -0.0080  0.2576
 9595PW      WP33720  10.419   0.270   2.786 -0.2845 -0.2948  0.2660
 9595PW      WM33721  10.484   0.384   2.612  0.1757 -0.0961  0.1275
 9596PW       W33722   4.406   9.575  12.952 -0.0307 -0.1379  0.0447
 9596PW      WP33723   4.440   9.711  12.949 -0.0708 -0.1289 -0.0278
 9596PW      WM33724   4.442   9.479  12.857 -0.6112 -0.0637 -0.2762
 9597PW       W33725   0.067  11.959  12.579 -0.2533 -0.4278 -0.0760
 9597PW      WP33726   0.138  12.047  12.661 -0.7379 -0.1459  0.0612
 9597PW      WM33727   0.141  11.840  12.583 -0.3769 -0.5111 -0.1930
 9598PW       W33728   9.919   8.578   3.994  0.4431 -0.4218  0.2669
 9598PW      WP33729   9.816   8.595   4.088  0.1269  0.0949 -0.1399
 9598PW      WM33730  10.006   8.635   4.087  0.1220 -0.0008  0.3275
 9599PW       W33731   4.722   5.335  10.720  0.1530  0.6596  0.0837
 9599PW      WP33732   4.598   5.270  10.717  0.3154  0.3399  0.0071
 9599PW      WM33733   4.757   5.311  10.853  0.5348  0.2186 -0.0829
 9600PW       W33734  11.740   7.918   1.517  0.3132  0.0880 -0.0430
 9600PW      WP33735  11.674   8.001   1.609 -0.0249 -0.3667  0.1425
 9600PW      WM33736  11.861   7.898   1.450  0.6808  0.5399  0.4415
 9601PW       W33737   1.120   8.715   9.395  0.2399  0.1984 -0.1101
 9601PW      WP33738   1.055   8.601   9.445 -0.2267  0.1906 -0.6796
 9601PW      WM33739   0.986   8.749   9.374  0.0763 -0.3143  0.0276
 9602PW       W33740   9.322   5.916   1.265  0.2152 -0.0100 -0.0692
 9602PW      WP33741   9.308   5.783   1.306  0.4516  0.0804  0.3320
 9602PW      WM33742   9.257   5.965   1.378 -0.0754  0.1181 -0.2868
 9603PW       W33743  11.759   7.049  11.038  0.2492  0.0054 -0.3459
 9603PW      WP33744  11.644   6.971  11.022  0.2916  0.0210 -0.7713
 9603PW      WM33745  11.887   7.066  11.093  0.1346 -0.5453  0.1441
 9604PW       W33746   4.706   1.529  10.243  0.2210 -0.2371 -0.2269
 9604PW      WP33747   4.758   1.620  10.149  0.1855 -0.1296 -0.1437
 9604PW      WM33748   4.636   1.412  10.214 -0.0458 -0.0805 -0.2344
 9605PW       W33749   8.090   0.651   5.409 -0.2955 -0.1272  0.0892
 9605PW      WP33750   8.200   0.585   5.354 -0.3626 -0.2665  0.1207
 9605PW      WM33751   7.975   0.731   5.394 -0.2724 -0.1753 -0.4257
 9606PW       W33752   7.285   9.859  11.870 -0.4400  0.2755  0.1589
 9606PW      WP33753   7.292   9.838  12.008  0.4325 -0.0679  0.0927
 9606PW      WM33754   7.291   9.996  11.843 -0.0933  0.2241 -0.0534
 9607PW       W33755   1.802   6.555  12.283 -0.0960 -0.1851 -0.2711
 9607PW      WP33756   1.729   6.477  12.374 -0.2948  0.1659 -0.1182
 9607PW      WM33757   1.770   6.634  12.394  0.2959 -0.1884 -0.1503
 9608PW       W33758   5.202   3.678   1.003 -0.0248  0.3287 -0.5420
 9608PW      WP33759   5.178   3.550   1.055  0.2933  0.3639 -0.2922
 9608PW      WM33760   5.142   3.763   1.097 -0.0433 -0.3622  0.1207
 9609PW       W33761   5.841  10.848   9.607  0.0116 -0.0734 -0.1635
 9609PW      WP33762   5.922  10.848   9.721 -0.3177 -0.3064  0.0806
 9609PW      WM33763   5.788  10.964   9.549 -0.5059 -0.1834  0.0609
 9610PW       W33764   8.021   2.031   2.411  0.2533 -0.6402 -0.1316
 9610PW      WP33765   7.930   2.089   2.500  0.5694 -0.3130 -0.0067
 9610PW      WM33766   8.122   2.117   2.365 -0.5248  0.9270  0.6934
 9611PW       W33767   9.660   8.617   3.513 -0.5482 -0.3210 -0.3345
 9611PW      WP33768   9.686   8.674   3.388 -0.2310  0.5098  0.0718
 9611PW      WM33769   9.542   8.666   3.572  0.0776  0.0907  0.7120
 9612PW       W33770   5.449   1.452  13.285 -0.0571  0.3405 -0.0975
 9612PW      WP33771   5.420   1.456  13.148  0.0199  0.0730 -0.1236
 9612PW      WM33772   5.387   1.401  13.400 -0.3022 -0.0364 -0.3850
 9613PW       W33773   3.713   2.370  10.457 -0.0858  0.1437  0.6898
 9613PW      WP33774   3.592   2.299  10.450  0.1104 -0.1663 -0.1388
 9613PW      WM33775   3.847   2.330  10.464 -0.2036 -0.4052  0.2491
 9614PW       W33776  11.571   6.867  10.325  0.1506 -0.2687  0.0942
 9614PW      WP33777  11.637   6.803  10.431  0.5300  0.0703  0.0746
 9614PW      WM33778  11.433   6.865  10.299  0.2448 -0.0367 -0.4965
 9615PW       W33779   9.896   5.210   1.757 -0.0785  0.0212 -0.6096
 9615PW      WP33780   9.783   5.143   1.709  0.0288 -0.0350 -0.7918
 9615PW      WM33781   9.999   5.251   1.842 -0.6682  0.0546  0.1359
 9616PW       W33782   8.414   4.967  11.539  0.1206  0.0338 -0.3309
 9616PW      WP33783   8.320   4.885  11.602  0.0273  0.1758 -0.2829
 9616PW      WM33784   8.412   4.863  11.445  0.2427 -0.3745  0.1001
 9617PW       W33785   6.974   8.208  10.384  0.3231 -0.2407 -0.0819
 9617PW      WP33786   6.955   8.347  10.376 -0.2226 -0.3054 -0.0794
 9617PW      WM33787   7.068   8.195  10.487  0.2162  0.2287  0.0902
 9618PW       W33788   1.760   6.705   2.745 -0.0323  0.2875  0.0167
 9618PW      WP33789   1.675   6.619   2.674 -0.0315  0.2869  0.0163
 9618PW      WM33790   1.677   6.730   2.855 -0.1259 -0.2504  0.0822
 9619PW       W33791  11.232   2.040  11.522 -0.0250  0.2325 -0.4328
 9619PW      WP33792  11.322   2.142  11.557  0.4126 -0.2597 -0.0483
 9619PW      WM33793  11.308   1.980  11.623 -0.0522  0.1130 -0.4830
 9620PW       W33794   1.454   6.383   2.535 -0.0006 -0.1744 -0.2110
 9620PW      WP33795   1.399   6.328   2.418  0.3856 -0.0046 -0.4832
 9620PW      WM33796   1.529   6.441   2.637  0.0459 -0.7263  0.0869
 9621PW       W33797   9.014   7.486   9.675 -0.1457  0.0290 -0.0056
 9621PW      WP33798   8.892   7.456   9.614 -0.1830  0.1358  0.0135
 9621PW      WM33799   9.065   7.469   9.546  0.4730 -0.4763  0.2843
 9622PW       W33800   6.246   8.831   5.334  0.0060  0.2111 -0.0027
 9622PW      WP33801   6.271   8.953   5.269  0.4012  0.2131  0.1412
 9622PW      WM33802   6.356   8.766   5.278 -0.0339  0.4236 -0.3444
 9623PW       W33803  11.093   2.108   9.440 -0.3587 -0.0896  0.1928
 9623PW      WP33804  11.174   2.154   9.336 -0.1333 -0.3969  0.2274
 9623PW      WM33805  11.006   2.216   9.421 -0.0297  0.0990 -0.3348
 9624PW       W33806   6.804   3.845   3.228 -0.0742  0.2729  0.1182
 9624PW      WP33807   6.907   3.776   3.293  0.0338  0.2025 -0.1215
 9624PW      WM33808   6.705   3.822   3.324  0.2461 -0.8406  0.2516
 9625PW       W33809   4.676   6.296   9.432  0.5743 -0.1457  0.2622
 9625PW      WP33810   4.744   6.220   9.528  0.4152 -0.3113  0.2454
 9625PW      WM33811   4.660   6.265   9.297 -0.1089  0.0993  0.2696
 9626PW       W33812   9.347   5.108  13.186 -0.2300  0.0494  0.0244
 9626PW      WP33813   9.213   5.149  13.190 -0.3085 -0.2105  0.2913
 9626PW      WM33814   9.439   5.186  13.256 -0.3550 -0.0431  0.3009
 9627PW       W33815   0.367  10.585  11.982  0.3816  0.0035 -0.2722
 9627PW      WP33816   0.470  10.678  11.967  0.0541  0.3663 -0.3511
 9627PW      WM33817   0.284  10.648  11.888 -0.3518 -0.5618 -0.0530
 9628PW       W33818   6.048  11.220   9.345 -0.0797  0.1979 -0.0263
 9628PW      WP33819   5.964  11.128   9.281  0.1033  0.0619 -0.0772
 9628PW      WM33820   6.165  11.171   9.404 -0.0645  0.1780 -0.0723
 9629PW       W33821   6.607   3.252  11.390  0.2973 -0.0615  0.0949
 9629PW      WP33822   6.487   3.302  11.442  0.0037 -0.9799  0.3954
 9629PW      WM33823   6.673   3.130  11.373 -0.1447 -0.2693 -0.2272
 9630PW       W33824   3.235   9.664   1.564 -0.1745  0.0560  0.1332
 9630PW      WP33825   3.354   9.651   1.637 -0.4792  0.0403  0.6530
 9630PW      WM33826   3.179   9.783   1.611  0.7406  0.6914 -0.2258
 9631PW       W33827   3.260   0.515  10.460  0.2582  0.3696 -0.2879
 9631PW      WP33828   3.191   0.431  10.371 -0.0193  0.3148 -0.0295
 9631PW      WM33829   3.175   0.618  10.417  0.2757  0.3531 -0.3630
 9632PW       W33830   7.360   3.289   0.798 -0.0123  0.1848 -0.0602
 9632PW      WP33831   7.297   3.244   0.681 -0.1195 -0.2828  0.1662
 9632PW      WM33832   7.269   3.366   0.872  0.0945  0.0688  0.1991
 9633PW       W33833  10.316   9.207   9.669 -0.0463  0.3312  0.0930
 9633PW      WP33834  10.234   9.175   9.561 -0.1815 -0.1572  0.3289
 9633PW      WM33835  10.404   9.161   9.570 -0.2079  0.1093  0.0504
 9634PW       W33836   8.659   2.854   3.077 -0.1937 -0.3428 -0.0304
 9634PW      WP33837   8.565   2.957   3.082 -0.2039 -0.3616  0.2225
 9634PW      WM33838   8.705   2.841   2.945 -0.4034  0.6583 -0.2413
 9635PW       W33839   9.413   3.063   5.462  0.2318  0.0775  0.4569
 9635PW      WP33840   9.449   3.182   5.526  0.0243  0.2823  0.2029
 9635PW      WM33841   9.293   2.994   5.481  0.2841 -0.2460 -0.2251
 9636PW       W33842   4.682   1.630   1.895 -0.0537  0.0002  0.0623
 9636PW      WP33843   4.618   1.566   2.002 -0.0726 -0.7015 -0.3397
 9636PW      WM33844   4.608   1.589   1.784 -0.4503 -0.0662  0.3408
 9637PW       W33845   9.183  11.667   4.532  0.1195  0.6794 -0.2081
 9637PW      WP33846   9.269  11.718   4.435  0.1547  0.3714 -0.3442
 9637PW      WM33847   9.289  11.577   4.524 -0.1074  0.3737  0.0656
 9638PW       W33848   4.633  11.289   5.018 -0.0544 -0.0227 -0.1619
 9638PW      WP33849   4.708  11.200   5.095  0.1763  0.0016 -0.3527
 9638PW      WM33850   4.498  11.263   4.991 -0.0674  0.1870 -0.3080
 9639PW       W33851   5.162   0.515   3.441 -0.0114  0.0700  0.4255
 9639PW      WP33852   5.116   0.539   3.311  0.0279  0.2110  0.4366
 9639PW      WM33853   5.161   0.384   3.491  0.2463 -0.0010  0.2561
 9640PW       W33854  11.432   6.539   1.496  0.0385  0.4719 -0.0960
 9640PW      WP33855  11.553   6.484   1.451 -0.0964 -0.0340  0.1271
 9640PW      WM33856  11.305   6.592   1.469  0.1325  0.2126 -1.3964
 9641PW       W33857   7.368   4.065   9.215  0.0473 -0.2956 -0.6420
 9641PW      WP33858   7.286   3.960   9.257 -0.0966 -0.0773 -0.3676
 9641PW      WM33859   7.488   4.031   9.280  0.0137  0.1838 -0.3026
 9642PW       W33860   2.839   9.570   0.595  0.0396  0.3065 -0.4326
 9642PW      WP33861   2.829   9.654   0.483 -0.5326 -0.0247 -0.6526
 9642PW      WM33862   2.898   9.446   0.571  0.6084  0.4003  0.2833
 9643PW       W33863  11.098   6.644   1.862  0.1165  0.0652 -0.3622
 9643PW      WP33864  11.202   6.720   1.917 -0.0904 -0.1301  0.3487
 9643PW      WM33865  11.042   6.528   1.807 -0.2060  0.2044 -0.3385
 9644PW       W33866   6.667   5.243  11.065 -0.0057  0.0159  0.4557
 9644PW      WP33867   6.668   5.347  11.158  0.2361  0.3679  0.0737
 9644PW      WM33868   6.770   5.169  11.124  0.2545 -0.2436 -0.2739
 9645PW       W33869  10.624   7.391   3.104  0.2275  0.0407 -0.1243
 9645PW      WP33870  10.572   7.452   3.219 -0.1601 -0.0325 -0.2566
 9645PW      WM33871  10.580   7.411   2.973 -0.5355 -0.1648  0.0779
 9646PW       W33872   8.255   4.921   4.344  0.2585 -0.1747  0.4455
 9646PW      WP33873   8.232   4.941   4.481 -0.1722 -0.0509  0.3651
 9646PW      WM33874   8.314   4.885   4.223 -0.3138 -0.1769  0.1479
 9647PW       W33875  10.046   0.168  13.210 -0.4196  0.0373 -0.2307
 9647PW      WP33876   9.936   0.113  13.277 -0.0021 -0.3631  0.1585
 9647PW      WM33877  10.088   0.035  13.203 -0.4702  0.0328 -0.5435
 9648PW       W33878   7.457   3.261   8.592 -0.4428  0.1902 -0.0658
 9648PW      WP33879   7.448   3.225   8.457  0.4062  0.2714 -0.1732
 9648PW      WM33880   7.493   3.134   8.639 -0.8780 -0.0984 -0.4638
 9649PW       W33881  10.745   7.635   8.188  0.3294 -0.0248 -0.0126
 9649PW      WP33882  10.632   7.661   8.268  0.2341  0.0524 -0.1690
 9649PW      WM33883  10.817   7.548   8.271  0.1635 -0.0146  0.1473
 9650PW       W33884   0.463  10.302   3.455 -0.3140 -0.1645  0.1034
 9650PW      WP33885   0.384  10.399   3.519 -0.1439 -0.0334  0.1166
 9650PW      WM33886   0.498  10.167   3.465 -0.6309 -0.2479  0.1567
 9651PW       W33887   5.446  10.868  12.557  0.1748  0.1825 -0.1961
 9651PW      WP33888   5.323  10.847  12.621  0.0549  1.1788 -0.0089
 9651PW      WM33889   5.536  10.772  12.512 -0.1586 -0.3686  0.2413
 9652PW       W33890   6.047   3.624   0.487 -0.4357  0.0191  0.1454
 9652PW      WP33891   5.933   3.703   0.474  0.1892  1.0248  0.2544
 9652PW      WM33892   6.143   3.606   0.588  0.2952 -0.2522 -0.5426
 9653PW       W33893   1.155   6.015   9.962 -0.2211  0.1874 -0.2486
 9653PW      WP33894   1.165   5.942  10.081 -0.2623  0.3098 -0.1681
 9653PW      WM33895   1.272   6.086   9.993 -0.2127  0.0580  0.0346
 9654PW       W33896   0.692   9.755   9.633  0.1598  0.3198 -0.0457
 9654PW      WP33897   0.742   9.662   9.541  0.2866  0.0597  0.2792
 9654PW      WM33898   0.807   9.739   9.710  0.1578  0.2733 -0.0527
 9655PW       W33899   6.374   3.526   5.532  0.0138  0.3782 -0.0588
 9655PW      WP33900   6.441   3.586   5.425 -0.1158  0.0427 -0.3408
 9655PW      WM33901   6.332   3.407   5.471  0.0158  0.1391  0.3860
 9656PW       W33902   2.878  11.180   4.975 -0.2488  0.2981  0.6471
 9656PW      WP33903   2.896  11.043   4.993  0.1996  0.2627  0.0685
 9656PW      WM33904   2.904  11.258   4.862  0.0301 -0.2948  0.2780
 9657PW       W33905   0.540   6.690  10.875 -0.1204  0.1551  0.1438
 9657PW      WP33906   0.588   6.641  10.753 -0.2757  0.0124  0.1377
 9657PW      WM33907   0.569   6.827  10.881 -0.0679  0.1457  0.1082
 9658PW       W33908   0.215   6.221   3.160 -0.1022  0.1206 -0.2694
 9658PW      WP33909   0.108   6.132   3.150  0.0945 -0.0845 -0.6656
 9658PW      WM33910   0.176   6.344   3.216  0.2193  0.3238 -0.4766
 9659PW       W33911   7.297   4.049   3.344 -0.0074  0.2478  0.4885
 9659PW      WP33912   7.270   3.912   3.337  0.3307  0.1855  0.3059
 9659PW      WM33913   7.239   3.962   3.252  0.6515 -0.0750  0.3509
 9660PW       W33914   7.131   8.898   2.155 -0.1934  0.1107 -0.0454
 9660PW      WP33915   7.242   8.978   2.128 -0.1166  0.0968  0.2152
 9660PW      WM33916   6.993   8.919   2.141 -0.1531  0.4768  0.0577
 9661PW       W33917   7.630   9.979   0.622  0.3616  0.0459 -0.1033
 9661PW      WP33918   7.765   9.997   0.589  0.2644 -0.0684 -0.6035
 9661PW      WM33919   7.523   9.947   0.706  0.8521 -0.2544  0.4478
 9662PW       W33920   2.742   2.786   2.657 -0.2262  0.2168 -0.0184
 9662PW      WP33921   2.750   2.883   2.757 -0.0812 -0.3425  0.5432
 9662PW      WM33922   2.774   2.651   2.638  0.2861  0.2758  0.3099
 9663PW       W33923   8.731   0.494   4.151  0.1066 -0.0128 -0.3300
 9663PW      WP33924   8.672   0.413   4.249  0.8546  0.1767  0.3273
 9663PW      WM33925   8.675   0.560   4.041  0.1926  0.6074 -0.0265
 9664PW       W33926   8.590   8.104   1.750 -0.1566 -0.1697  0.0973
 9664PW      WP33927   8.634   8.171   1.865  0.2698  0.4508 -0.3895
 9664PW      WM33928   8.702   8.024   1.771  0.0124  0.0267 -0.0402
 9665PW       W33929   1.087  10.684   0.383  0.4979 -0.3175  0.2432
 9665PW      WP33930   0.969  10.625   0.432  0.4307 -0.2185  0.2021
 9665PW      WM33931   0.992  10.673   0.281  0.4293 -0.0043  0.2675
 9666PW       W33932   9.028   2.377   9.796 -0.2181 -0.1348  0.0629
 9666PW      WP33933   9.062   2.401   9.929  0.1869 -0.1070 -0.0368
 9666PW      WM33934   9.049   2.515   9.807  0.2136 -0.1528 -0.3444
 9667PW       W33935   2.737   4.312  13.052 -0.0469  0.5570 -0.0921
 9667PW      WP33936   2.863   4.259  13.023 -0.0305  0.2771  0.4491
 9667PW      WM33937   2.816   4.403  13.122  0.3885  0.2851 -0.2109
 9668PW       W33938   2.223   2.792   9.991  0.0029 -0.4788  0.4844
 9668PW      WP33939   2.293   2.684   9.935  0.4119  0.0640 -0.1322
 9668PW      WM33940   2.303   2.877  10.068  0.1035  0.2002 -0.3039
 9669PW       W33941   1.526   7.840   3.420  0.8474 -0.4106 -0.0849
 9669PW      WP33942   1.476   7.737   3.500  0.3641  0.0873  0.2950
 9669PW      WM33943   1.527   7.806   3.285  0.3310 -0.2157 -0.1491
 9670PW       W33944   9.568   3.102   3.579  0.4202 -0.0334  0.2244
 9670PW      WP33945   9.527   3.236   3.583 -0.0683 -0.1455 -0.3463
 9670PW      WM33946   9.547   3.131   3.715  0.3674 -0.0804  0.2262
 9671PW       W33947   3.100   2.198   4.385 -0.2143  0.0530 -0.2851
 9671PW      WP33948   3.009   2.173   4.489  0.1109 -0.2185 -0.0566
 9671PW      WM33949   3.045   2.173   4.512 -0.0545 -0.4436 -0.3033
 9672PW       W33950   8.379   7.064   1.256  1.0034  0.1149 -0.1575
 9672PW      WP33951   8.384   7.097   1.391  0.2231 -0.1625 -0.0318
 9672PW      WM33952   8.306   7.178   1.293  0.1563 -0.4381  0.0228
 9673PW       W33953   2.953   5.012  10.942 -0.0470  0.6533 -0.2856
 9673PW      WP33954   3.053   4.996  11.039 -0.2906 -0.0428 -0.1194
 9673PW      WM33955   2.909   5.140  10.975 -0.5454  0.3414  0.3688
 9674PW       W33956   3.020   7.593   4.287 -0.5748 -0.2178  0.2514
 9674PW      WP33957   2.996   7.682   4.182  0.4208 -0.0749  0.1052
 9674PW      WM33958   3.014   7.685   4.392  0.0429  0.2473 -0.0917
 9675PW       W33959   4.953   4.978   1.070  0.5506  0.0417  0.1188
 9675PW      WP33960   4.997   4.861   1.134  0.0202 -0.0811  0.2787
 9675PW      WM33961   5.010   4.961   0.943 -0.3327 -0.5618 -0.2476
 9676PW       W33962   2.859  11.195   3.075  0.0657 -0.1722  0.2157
 9676PW      WP33963   2.993  11.231   3.091  0.1280 -0.3019  0.0066
 9676PW      WM33964   2.764  11.296   3.057 -0.2417 -0.5257 -0.2717
 9677PW       W33965   1.408   8.185   1.599  0.1248  0.2546 -0.1848
 9677PW      WP33966   1.395   8.046   1.588 -0.3873  0.2841 -0.0591
 9677PW      WM33967   1.478   8.219   1.716  0.0593 -0.3811  0.0594
 9678PW       W33968  10.422   4.236  11.027  0.0422 -0.4420  0.2334
 9678PW      WP33969  10.555   4.201  11.052  0.2977  0.4998  0.3761
 9678PW      WM33970  10.356   4.323  11.114  0.2154  0.0083 -0.0677
 9679PW       W33971   3.412   5.365  10.166  0.0627 -0.2715  0.2834
 9679PW      WP33972   3.342   5.414  10.056  0.4681  0.6137  0.3759
 9679PW      WM33973   3.332   5.388  10.279 -0.0753 -0.2804  0.1887
 9680PW       W33974   2.613   0.811   0.864 -0.0458  0.0533  0.1973
 9680PW      WP33975   2.697   0.740   0.952 -0.1211 -0.2945 -0.0008
 9680PW      WM33976   2.605   0.816   1.004  0.1830 -0.3299  0.2319
 9681PW       W33977   6.993   6.753   3.341 -0.3041 -0.2456 -0.1241
 9681PW      WP33978   7.052   6.767   3.467 -0.2587 -0.5417 -0.1079
 9681PW      WM33979   7.095   6.788   3.252 -0.1671 -0.4517 -0.0529
 9682PW       W33980   0.298  10.539  12.880 -0.1333 -0.3532 -0.2858
 9682PW      WP33981   0.289  10.410  12.931  0.0488 -0.2181  0.1062
 9682PW      WM33982   0.185  10.549  12.798 -0.1514 -0.3330 -0.2588
 9683PW       W33983   3.508   5.160   5.259 -0.0947 -0.1962 -0.0105
 9683PW      WP33984   3.536   5.068   5.360 -0.1759 -0.3043 -0.0853
 9683PW      WM33985   3.398   5.242   5.229  0.0591  0.1244  0.2731
 9684PW       W33986   2.169   7.662   1.691 -0.3920 -0.0756 -0.0645
 9684PW      WP33987   2.206   7.695   1.560  0.4015  0.0166  0.1584
 9684PW      WM33988   2.069   7.565   1.709 -0.0879 -0.5675 -0.7752
 9685PW       W33989   0.617  11.447   3.935  0.1299  0.1788  0.1568
 9685PW      WP33990   0.748  11.477   3.897 -0.0624  0.1116 -0.6445
 9685PW      WM33991   0.632  11.308   3.922  0.5298  0.2381 -0.1049
 9686PW       W33992   1.494   1.773   1.701  0.2531  0.0434 -0.2494
 9686PW      WP33993   1.486   1.905   1.745  0.2154 -0.0074 -0.0988
 9686PW      WM33994   1.373   1.702   1.691 -0.0013  0.4134  0.0725
 9687PW       W33995  12.017   3.047   1.124  0.2643  0.2772 -0.1913
 9687PW      WP33996  11.960   2.925   1.088  0.5874  0.1175 -0.1771
 9687PW      WM33997  12.104   3.096   1.223  0.0362  0.1924  0.0558
 9688PW       W33998  10.407   5.361   1.672 -0.1775 -0.2586 -0.1448
 9688PW      WP33999  10.537   5.414   1.676 -0.1746 -0.2767  0.4752
 9688PW      WM34000  10.447   5.303   1.551  0.3390  0.1130 -0.1706
 9689PW       W34001   7.682   9.665  11.588 -0.4222  0.1015 -0.3181
 9689PW      WP34002   7.648   9.782  11.657  0.3814  0.1019  0.1480
 9689PW      WM34003   7.714   9.781  11.517 -0.0740  0.2990  0.1336
 9690PW       W34004  10.804   1.126  10.160  0.1835 -0.3376  0.1475
 9690PW      WP34005  10.844   1.145  10.027  0.1060  0.4242  0.2135
 9690PW      WM34006  10.834   1.030  10.258  0.2442 -0.5072 -0.0347
 9691PW       W34007   1.771   1.305   4.015 -0.3828 -0.1561  0.2212
 9691PW      WP34008   1.762   1.166   4.022  0.3708 -0.2159  0.4489
 9691PW      WM34009   1.686   1.398   3.953 -0.0481  0.1214  0.1650
 9692PW       W34010  12.101   3.327   2.312 -0.1512  0.0406  0.1044
 9692PW      WP34011  12.097   3.197   2.364 -0.2117  0.1485  0.3727
 9692PW      WM34012  12.046   3.405   2.210  0.2694  0.6238  0.2985
 9693PW       W34013   2.156   5.467  10.760 -0.1230 -0.0329 -0.2482
 9693PW      WP34014   2.201   5.349  10.699  0.0655  0.0040 -0.1842
 9693PW      WM34015   2.157   5.543  10.642 -0.1608 -0.1827 -0.3468
 9694PW       W34016   0.620   1.173   9.523 -0.2154 -0.0277  0.2461
 9694PW      WP34017   0.523   1.258   9.470 -0.1784 -0.0884  0.0788
 9694PW      WM34018   0.703   1.064   9.495 -0.6137 -0.2173 -0.2624
 9695PW       W34019   8.949  11.904   9.826  0.1605 -0.0148 -0.2348
 9695PW      WP34020   9.074  11.851   9.861  0.0419 -0.1691 -0.0313
 9695PW      WM34021   8.891  12.031   9.817  0.1621  0.0040 -0.0160
 9696PW       W34022   0.873   5.602   9.297 -0.0244  0.2061 -0.2522
 9696PW      WP34023   0.831   5.557   9.171  0.0545 -0.0194 -0.1994
 9696PW      WM34024   0.940   5.543   9.405 -0.5294  0.1005  0.0170
 9697PW       W34025   2.525   1.918   3.762  0.0566 -0.3031 -0.1691
 9697PW      WP34026   2.590   2.000   3.670 -0.2803  0.1176 -0.0460
 9697PW      WM34027   2.662   1.921   3.791 -0.0671 -0.4762  0.5396
 9698PW       W34028   6.895   0.712   4.770  0.1225  0.2802 -0.1047
 9698PW      WP34029   6.888   0.697   4.909 -0.2415  0.3127 -0.1161
 9698PW      WM34030   6.933   0.691   4.903 -0.3718 -0.3113 -0.0331
 9699PW       W34031   6.458  10.793  11.314 -0.0355 -0.3489  0.1279
 9699PW      WP34032   6.377  10.680  11.326 -0.1513 -0.2983 -0.1455
 9699PW      WM34033   6.590  10.793  11.268 -0.0614 -0.1660  0.0481
 9700PW       W34034   3.943   8.482  10.924 -0.2474  0.2142 -0.0020
 9700PW      WP34035   3.940   8.344  10.949 -0.2892  0.1979 -0.0932
 9700PW      WM34036   3.918   8.518  11.057  0.0886 -0.2517  0.2002
 9701PW       W34037   2.158  11.580   0.910 -0.1004 -0.1872  0.0623
 9701PW      WP34038   2.060  11.649   0.983 -0.0058  0.3076 -0.2539
 9701PW      WM34039   2.280  11.522   0.874 -0.3152 -0.5997 -0.0310
 9702PW       W34040   1.246   3.064  11.573  0.2618  0.2221 -0.0253
 9702PW      WP34041   1.354   2.975  11.579 -0.1406 -0.2735  0.2323
 9702PW      WM34042   1.215   3.107  11.702  0.5252  1.0715 -0.2141
 9703PW       W34043   1.542  10.467   2.182 -0.4358  0.0975  0.2205
 9703PW      WP34044   1.474  10.560   2.102 -0.6296 -0.2219  0.0023
 9703PW      WM34045   1.600  10.368   2.262 -0.1874  0.0926  0.0417
 9704PW       W34046   9.111   4.257  11.384 -0.4509 -0.0436 -0.4497
 9704PW      WP34047   9.086   4.125  11.342 -0.0082 -0.2433 -0.1344
 9704PW      WM34048   9.213   4.330  11.322  0.0397  0.0478  0.3864
 9705PW       W34049   8.669   3.506   9.528 -0.1889  0.0082  0.4745
 9705PW      WP34050   8.794   3.563   9.500 -0.0726 -0.5104 -0.2096
 9705PW      WM34051   8.714   3.413   9.622 -0.4446  0.1504  0.7442
 9706PW       W34052  12.006   2.721   3.460  0.3710  0.1282 -0.1773
 9706PW      WP34053  12.025   2.779   3.586 -0.5102  0.2410 -0.0692
 9706PW      WM34054  12.063   2.793   3.355  0.3802  0.7182  0.2129
 9707PW       W34055   6.690   4.345  13.067 -0.2998  0.0281  0.2424
 9707PW      WP34056   6.746   4.291  13.184 -0.2866  0.0435  0.2429
 9707PW      WM34057   6.554   4.345  13.036 -0.1851  0.2383 -0.3154
 9708PW       W34058   8.237  11.432   0.753  0.0987  0.2254 -0.0701
 9708PW      WP34059   8.268  11.559   0.704 -0.3189  0.4382  0.1892
 9708PW      WM34060   8.269  11.309   0.693  0.3571  0.3700 -0.2357
 9709PW       W34061  10.301   8.835   3.829  0.0600  0.3010 -0.0985
 9709PW      WP34062  10.214   8.738   3.877 -0.1252  0.4650 -0.0976
 9709PW      WM34063  10.254   8.952   3.769 -0.0456  0.0672 -0.4895
 9710PW       W34064   4.704  11.417   4.031  0.2700  0.1864 -0.4047
 9710PW      WP34065   4.604  11.500   4.083  0.2027  0.0498 -0.3135
 9710PW      WM34066   4.675  11.289   4.080 -0.2079  0.3344 -0.2727
 9711PW       W34067   0.768   9.544   9.205 -0.0376  0.0043  0.0249
 9711PW      WP34068   0.740   9.560   9.069 -0.6894  0.1748  0.1603
 9711PW      WM34069   0.713   9.611   9.314 -0.6798 -0.0319 -0.2558
 9712PW       W34070   9.314   4.633   1.486 -0.1555  0.0264 -0.4729
 9712PW      WP34071   9.263   4.530   1.567 -0.3234  0.7389  0.4162
 9712PW      WM34072   9.208   4.723   1.469 -0.4998 -0.2255  0.1533
 9713PW       W34073   9.491   2.343   4.716 -0.7177  0.2084 -0.3755
 9713PW      WP34074   9.458   2.375   4.848  0.5315 -0.2359  0.1180
 9713PW      WM34075   9.554   2.435   4.800 -0.3718 -0.0012 -0.3943
 9714PW       W34076  11.281   3.409   1.567 -0.2830  0.3745 -0.3600
 9714PW      WP34077  11.211   3.322   1.652  0.6442  0.4026  0.5250
 9714PW      WM34078  11.166   3.450   1.635 -0.2038 -0.4037  0.3244
 9715PW       W34079   8.113   6.134  10.522  0.5133 -0.1661  0.3418
 9715PW      WP34080   8.023   6.039  10.473 -0.1268  0.5037  0.1276
 9715PW      WM34081   8.172   6.140  10.396  0.1726  0.2985  0.1890
 9716PW       W34082   1.148   6.089   3.312 -0.6892  0.1273  0.1729
 9716PW      WP34083   1.192   6.212   3.362  0.2474 -0.0116 -0.2046
 9716PW      WM34084   1.059   5.984   3.339 -0.2905 -0.1624  0.4013
 9717PW       W34085   6.745   9.010   4.746 -0.3166  0.0947 -0.1319
 9717PW      WP34086   6.661   8.956   4.844 -0.3811  0.3276 -0.0561
 9717PW      WM34087   6.607   9.006   4.770 -0.2480 -0.0889  0.2679
 9718PW       W34088   5.547   6.484  10.375  0.1476 -0.1390 -0.4779
 9718PW      WP34089   5.516   6.353  10.413  0.0620  0.0160  0.0192
 9718PW      WM34090   5.645   6.568  10.430 -0.0233 -0.2666  0.0461
 9719PW       W34091   5.703   0.575   3.587  0.0656  0.1147 -0.1125
 9719PW      WP34092   5.580   0.509   3.574  0.0415  0.1431 -0.0323
 9719PW      WM34093   5.626   0.686   3.621 -0.5391 -0.1639 -0.4728
 9720PW       W34094   5.556   3.336   4.537 -0.0313  0.1571 -0.4130
 9720PW      WP34095   5.516   3.371   4.666 -0.1726 -0.1279 -0.3767
 9720PW      WM34096   5.685   3.301   4.578 -0.3841 -0.5748  0.1985
 9721PW       W34097   6.809  11.443   5.065  0.3789 -0.0380 -0.2557
 9721PW      WP34098   6.804  11.325   5.141  0.6747 -0.1652 -0.4242
 9721PW      WM34099   6.794  11.370   4.947 -0.0812 -0.1928 -0.1146
 9722PW       W34100   0.448   5.071   4.371 -0.3047 -0.6312 -0.2412
 9722PW      WP34101   0.341   5.122   4.296 -0.5365 -0.2045  0.3398
 9722PW      WM34102   0.585   5.061   4.344 -0.1139 -0.2820  0.4696
 9723PW       W34103   0.211  11.659   9.053  0.5186  0.1573 -0.2010
 9723PW      WP34104   0.283  11.589   9.150 -0.0617  0.2285  0.3153
 9723PW      WM34105   0.152  11.735   9.155  0.4326 -0.2417  0.0604
 9724PW       W34106   1.492   2.405   2.481  0.2318 -0.2216  0.1649
 9724PW      WP34107   1.598   2.407   2.390  0.0388  0.1508 -0.0649
 9724PW      WM34108   1.510   2.267   2.495 -0.1781 -0.2487  0.5606
 9725PW       W34109   4.975   2.428  12.515  0.0693 -0.5430  0.0885
 9725PW      WP34110   4.903   2.449  12.397 -0.0841 -0.0114  0.2640
 9725PW      WM34111   4.953   2.390  12.647 -0.3669 -0.1696  0.1336
 9726PW       W34112   8.364   8.420  10.769 -0.1621 -0.1259  0.0002
 9726PW      WP34113   8.338   8.321  10.674  0.2569 -0.4281  0.1858
 9726PW      WM34114   8.362   8.559  10.751 -0.3851 -0.1683 -0.3444
 9727PW       W34115   8.610  10.391   8.644 -0.0551 -0.0329  0.3743
 9727PW      WP34116   8.521  10.483   8.701 -0.1041  0.2107 -0.0714
 9727PW      WM34117   8.663  10.331   8.759  0.1581 -0.3502  0.1180
 9728PW       W34118   9.251  11.576  11.501 -0.2568  0.2440 -0.0548
 9728PW      WP34119   9.241  11.670  11.398  0.1257  0.2536 -0.0874
 9728PW      WM34120   9.225  11.574  11.639  0.0472  0.3642  0.0068
 9729PW       W34121  10.012   0.942   9.094 -0.0750 -0.1480 -0.2120
 9729PW      WP34122  10.007   0.869   8.974  0.3871 -0.0408 -0.3073
 9729PW      WM34123   9.926   0.921   9.202 -0.0560 -0.3089 -0.2278
 9730PW       W34124  10.290   8.115   4.637  0.0749 -0.2671  0.1231
 9730PW      WP34125  10.280   8.242   4.694 -0.1407 -0.3965  0.3890
 9730PW      WM34126  10.155   8.093   4.669  0.0025 -0.0911 -0.0478
 9731PW       W34127   4.515   5.171   3.852  0.0426  0.1563  0.0991
 9731PW      WP34128   4.376   5.161   3.868  0.0634 -0.0701  0.1652
 9731PW      WM34129   4.515   5.305   3.814  0.0009  0.1753  0.1644
 9732PW       W34130   4.194  10.135   3.548 -0.1504 -0.5011  0.1276
 9732PW      WP34131   4.147  10.004   3.541 -0.4236 -0.3905 -0.5454
 9732PW      WM34132   4.192  10.122   3.409 -0.2880  0.2366  0.0414
 9733PW       W34133   4.349   6.857  11.103 -0.0918 -0.1559  0.4153
 9733PW      WP34134   4.211   6.880  11.117  0.0050  0.5293  0.4229
 9733PW      WM34135   4.369   6.740  11.176 -0.0157 -0.4049  0.0090
 9734PW       W34136  11.082   8.582   2.482  0.5614 -0.4845  0.0413
 9734PW      WP34137  11.158   8.661   2.568  0.1908  0.0756 -0.1147
 9734PW      WM34138  11.195   8.548   2.407  0.5501 -0.2633 -0.0830
 9735PW       W34139   1.672   2.273  11.917 -0.3225 -0.0807 -0.2506
 9735PW      WP34140   1.778   2.185  11.943  0.2399  0.4178 -0.7052
 9735PW      WM34141   1.646   2.374  12.011 -0.6887 -0.2039 -0.2134
 9736PW       W34142   8.364   0.445  13.328  0.1113 -0.2056  0.2235
 9736PW      WP34143   8.241   0.509  13.308  0.2702  0.0453  0.0095
 9736PW      WM34144   8.450   0.532  13.396  0.1752 -0.3414  0.3197
 9737PW       W34145   5.241   2.216   2.360 -0.4777 -0.1301  0.2906
 9737PW      WP34146   5.377   2.220   2.396 -0.4694  0.3667  0.2364
 9737PW      WM34147   5.325   2.299   2.284 -0.4454 -0.1867  0.2641
 9738PW       W34148   4.222   5.856   2.178  0.2053  0.2171  0.1907
 9738PW      WP34149   4.257   5.966   2.257  0.3134  0.3899 -0.0885
 9738PW      WM34150   4.230   5.718   2.202  0.5179  0.2605  0.3657
 9739PW       W34151   1.702   3.242  13.075  0.0880 -0.3193 -0.2991
 9739PW      WP34152   1.821   3.173  13.053  0.2432 -0.2069  0.1408
 9739PW      WM34153   1.600   3.200  13.161 -0.0246 -0.0727 -0.3061
 9740PW       W34154  10.368   3.213   0.726 -0.1426 -0.1209  0.2083
 9740PW      WP34155  10.494   3.155   0.706 -0.1429 -0.0186 -0.1128
 9740PW      WM34156  10.430   3.172   0.845  0.0297  0.0425  0.1769
 9741PW       W34157   8.541   7.822   2.464 -0.4158  0.3293  0.1923
 9741PW      WP34158   8.590   7.912   2.558  0.5639  0.5593 -0.4597
 9741PW      WM34159   8.491   7.769   2.583  0.2399  0.2211  0.4360
 9742PW       W34160   3.142   7.859   8.758 -0.1976  0.3695 -0.0262
 9742PW      WP34161   3.027   7.787   8.792 -0.0093  0.2231  0.3244
 9742PW      WM34162   3.161   7.889   8.622 -0.3401  0.0234 -0.1293
 9743PW       W34163   1.349   8.198  10.262 -0.0538  0.1894  0.3044
 9743PW      WP34164   1.353   8.249  10.392 -0.1165 -0.0423  0.4006
 9743PW      WM34165   1.239   8.274  10.220 -0.3432  0.1789  0.9712
 9744PW       W34166   9.615   1.323   2.527  0.1012  0.0515 -0.1692
 9744PW      WP34167   9.661   1.431   2.451  0.4403  0.0431  0.0131
 9744PW      WM34168   9.696   1.354   2.637  0.0996  0.3028 -0.2363
 9745PW       W34169   0.888  11.752   3.612 -0.3692  0.1373  0.2604
 9745PW      WP34170   0.941  11.836   3.513  0.1971 -0.2282  0.2345
 9745PW      WM34171   0.839  11.621   3.604  0.0868 -0.0233 -0.0983
 9746PW       W34172   5.422   1.692   8.878 -0.1858 -0.0701  0.1483
 9746PW      WP34173   5.493   1.645   8.989 -0.0960 -0.3976 -0.0423
 9746PW      WM34174   5.548   1.747   8.854 -0.0727 -0.3137  0.1749
 9747PW       W34175   7.308   7.425  11.949 -0.0757 -0.0312  0.1834
 9747PW      WP34176   7.230   7.541  11.955  0.2453  0.2017 -0.0012
 9747PW      WM34177   7.332   7.458  11.815 -0.3375 -0.3746  0.0413
 9748PW       W34178   9.153   4.239  13.052  0.0110  0.7171 -0.2658
 9748PW      WP34179   9.152   4.311  13.172  0.4482 -0.1535  0.3124
 9748PW      WM34180   9.143   4.161  12.936 -0.3105  0.2231  0.0721
 9749PW       W34181   6.185  12.181   2.478 -0.0280 -0.2052 -0.3059
 9749PW      WP34182   6.272  12.079   2.518  0.3504  0.2102 -0.0135
 9749PW      WM34183   6.133  12.126   2.360  0.1195 -0.2241 -0.3641
 9750PW       W34184   5.082   7.079   4.315 -0.2956 -0.0734  0.0102
 9750PW      WP34185   5.044   7.187   4.235  0.0300  0.2110  0.2256
 9750PW      WM34186   5.023   7.118   4.436  0.5073  0.8679  0.1612
 9751PW       W34187   5.135   0.165   1.142  0.0005 -0.2380  0.3449
 9751PW      WP34188   5.263   0.177   1.088 -0.1575 -0.2725 -0.0574
 9751PW      WM34189   5.140   0.057   1.230  0.5283 -0.4104  0.1259
 9752PW       W34190  10.032   6.288   2.106 -0.2495  0.0272  0.1892
 9752PW      WP34191  10.041   6.255   2.242  0.4969 -0.3307  0.0782
 9752PW      WM34192   9.992   6.158   2.074  0.1892 -0.0396 -0.1275
 9753PW       W34193   6.348   4.338   1.068  0.1213 -0.0675  0.0491
 9753PW      WP34194   6.341   4.264   1.187  0.0880  0.1767  0.2025
 9753PW      WM34195   6.234   4.389   1.131 -0.2430 -0.5970 -0.1526
 9754PW       W34196   3.064   5.672  10.087 -0.2734 -0.4009 -0.7574
 9754PW      WP34197   3.102   5.769   9.994 -0.1135  0.0823 -0.2140
 9754PW      WM34198   2.964   5.582  10.127 -0.2100 -0.1293  0.1037
 9755PW       W34199   9.673  11.142   0.387  0.4500 -0.3930  0.0665
 9755PW      WP34200   9.673  11.083   0.260  0.0830  0.8222 -0.5763
 9755PW      WM34201   9.557  11.208   0.428  0.5641 -0.0610 -0.1209
 9756PW       W34202   1.194   8.575   4.741  0.2991  0.0467 -0.0133
 9756PW      WP34203   1.059   8.548   4.769  0.2963  0.1073  0.0328
 9756PW      WM34204   1.254   8.490   4.647  0.4690  0.1506 -0.0009
 9757PW       W34205   0.910   0.214   9.838  0.0138 -0.2747  0.1494
 9757PW      WP34206   0.994   0.212   9.727 -0.0727 -0.2934  0.0833
 9757PW      WM34207   0.880   0.295   9.948 -0.2353  0.2505 -0.2845
 9758PW       W34208   2.230   0.987   0.564 -0.3559  0.1133 -0.0411
 9758PW      WP34209   2.094   0.984   0.529 -0.3236 -0.3281 -0.1630
 9758PW      WM34210   2.238   1.126   0.572 -0.4848  0.1279 -0.1415
 9759PW       W34211   2.818   8.085   4.165  0.3098  0.1249 -0.2758
 9759PW      WP34212   2.825   8.079   4.026  0.0912 -0.2964 -0.2761
 9759PW      WM34213   2.768   7.955   4.150 -0.0443  0.2033  0.1325
 9760PW       W34214  10.711   0.754  10.453  0.1055 -0.0341 -0.1088
 9760PW      WP34215  10.783   0.858  10.394  0.0933  0.1406  0.1732
 9760PW      WM34216  10.824   0.672  10.464  0.4259  0.4397  0.3279
 9761PW       W34217   8.550   9.673  10.452  0.5098  0.0189 -0.3412
 9761PW      WP34218   8.437   9.752  10.426  0.0324 -0.4113  0.2722
 9761PW      WM34219   8.574   9.766  10.554 -0.1697 -0.0315 -0.1097
 9762PW       W34220   9.091   7.035   9.468 -0.2491  0.2002 -0.0185
 9762PW      WP34221   9.071   7.052   9.331 -0.4047  0.0632 -0.0136
 9762PW      WM34222   9.031   6.926   9.532 -0.3994  0.0420 -0.4154
 9763PW       W34223   8.341   9.333   3.087  0.0901 -0.2684  0.0365
 9763PW      WP34224   8.320   9.330   2.949 -0.1746 -0.3436  0.0768
 9763PW      WM34225   8.246   9.296   3.183 -0.2111  0.2469 -0.0444
 9764PW       W34226   9.490   3.595  12.665  0.2616  0.0287 -0.1210
 9764PW      WP34227   9.430   3.469  12.676  0.0281  0.1413 -0.0896
 9764PW      WM34228   9.605   3.643  12.729  0.1120 -0.1844  0.3342
 9765PW       W34229   0.195   1.151  11.793  0.2224 -0.1192 -0.3532
 9765PW      WP34230   0.076   1.080  11.809  0.1460  0.0658 -0.0717
 9765PW      WM34231   0.296   1.139  11.889 -0.1495 -0.0907  0.0567
 9766PW       W34232   5.288   9.811  10.487 -0.3189  0.0680  0.1871
 9766PW      WP34233   5.398   9.724  10.488 -0.3490  0.0251 -0.0472
 9766PW      WM34234   5.222   9.922  10.434  0.2459  0.3026 -0.0713
 9767PW       W34235   9.485   4.061  11.719 -0.1029 -0.4154 -0.2666
 9767PW      WP34236   9.572   4.140  11.643 -0.1327  0.0084  0.1156
 9767PW      WM34237   9.411   4.102  11.831 -0.3118  0.0201 -0.5512
 9768PW       W34238  11.043   1.476   4.308 -0.2670  0.1338 -0.0365
 9768PW      WP34239  11.011   1.438   4.177 -0.2274 -0.1253  0.0257
 9768PW      WM34240  11.160   1.551   4.294 -0.2534  0.1780  0.2689
 9769PW       W34241   3.316   6.593   2.476  0.0050  0.3023  0.1224
 9769PW      WP34242   3.245   6.487   2.534 -0.4059  0.3507 -0.2549
 9769PW      WM34243   3.378   6.685   2.561  0.6392  0.3271 -0.3329
 9770PW       W34244   9.346   5.522  10.294 -0.0361  0.6863 -0.2216
 9770PW      WP34245   9.211   5.501  10.324 -0.0122  0.5167 -0.2251
 9770PW      WM34246   9.467   5.586  10.264  0.3620  0.1817  0.2197
 9771PW       W34247   0.209   9.624   9.540 -0.0003 -0.1263 -0.0124
 9771PW      WP34248   0.229   9.758   9.575 -0.1586 -0.1316  0.1081
 9771PW      WM34249   0.214   9.739   9.620 -0.0262 -0.4755  0.5194
 9772PW       W34250   2.727   9.289   9.149  0.4528 -0.2610  0.0081
 9772PW      WP34251   2.717   9.351   9.024  0.2208 -0.2866  0.0102
 9772PW      WM34252   2.665   9.171   9.105 -0.2716  0.0507  0.1247
 9773PW       W34253   8.476   5.279  12.929 -0.1338  0.2168 -0.2506
 9773PW      WP34254   8.540   5.161  12.892  0.0884  0.3295 -0.2378
 9773PW      WM34255   8.533   5.307  12.804 -0.1526 -0.1023 -0.3341
 9774PW       W34256  10.333   9.250  10.609  0.2380  0.0094  0.4316
 9774PW      WP34257  10.294   9.358  10.689  0.2527 -0.0049  0.4582
 9774PW      WM34258  10.370   9.161  10.508 -0.2231  0.4289 -0.1427
 9775PW       W34259  10.597   3.761   2.510  0.1035  0.1360  0.3992
 9775PW      WP34260  10.689   3.751   2.405 -0.5178  0.2334 -0.1910
 9775PW      WM34261  10.585   3.839   2.394  0.0287 -0.3189  0.0824
 9776PW       W34262   8.542  10.240  12.549  0.3179  0.4404  0.0993
 9776PW      WP34263   8.466  10.331  12.623 -0.0295  0.0210  0.2814
 9776PW      WM34264   8.593  10.131  12.478 -0.2017  0.2057  0.0611
 9777PW       W34265   1.710  10.790  11.049 -0.2134 -0.0314  0.3836
 9777PW      WP34266   1.666  10.912  11.100  0.1876  0.4191 -0.2711
 9777PW      WM34267   1.821  10.828  10.972 -0.0955 -0.0503  0.5404
 9778PW       W34268   7.794   1.650   8.478 -0.0775  0.0080 -0.2186
 9778PW      WP34269   7.926   1.694   8.463 -0.1634  0.5248  0.3267
 9778PW      WM34270   7.811   1.782   8.522  0.2563 -0.0516 -0.1585
 9779PW       W34271  10.908   4.128   8.212  0.1309 -0.0503  0.0211
 9779PW      WP34272  10.814   4.232   8.226 -0.1956 -0.3739  0.3695
 9779PW      WM34273  10.985   4.138   8.329 -0.2194  0.4232  0.2295
 9780PW       W34274   1.647  -0.011   3.749  0.2758  0.1033 -0.1282
 9780PW      WP34275   1.560  -0.058   3.650  0.3027 -0.0639 -0.0734
 9780PW      WM34276   1.597   0.087   3.836 -0.1021 -0.2687  0.0902
 9781PW       W34277   8.061   4.762  11.762 -0.0238  0.0654  0.3788
 9781PW      WP34278   8.113   4.786  11.889  0.2320  0.1244  0.2653
 9781PW      WM34279   8.153   4.819  11.673 -0.2348  0.1778  0.2278
 9782PW       W34280  10.912   5.300   1.678  0.0594 -0.2162 -0.2361
 9782PW      WP34281  10.875   5.167   1.703 -0.1478 -0.1322 -0.0704
 9782PW      WM34282  10.815   5.316   1.578 -0.1793 -0.5604 -0.0705
 9783PW       W34283   9.492   4.401   2.918  0.0314 -0.0767 -0.1258
 9783PW      WP34284   9.510   4.403   2.779  1.1084 -0.2112 -0.0326
 9783PW      WM34285   9.476   4.314   3.026 -0.0487 -0.4548 -0.4317
 9784PW       W34286   7.111   6.721   9.192  0.1689 -0.2175 -0.2663
 9784PW      WP34287   7.080   6.640   9.082 -0.1001 -0.4812 -0.0061
 9784PW      WM34288   6.978   6.735   9.234  0.1843  0.3613 -0.3665
 9785PW       W34289   4.879  11.249   1.335 -0.0807 -0.0805  0.2896
 9785PW      WP34290   5.019  11.239   1.327 -0.1195 -0.3537 -0.2977
 9785PW      WM34291   4.785  11.281   1.433 -0.2862  0.0822  0.0441
 9786PW       W34292   7.010  11.111   4.423 -0.3042 -0.0635 -0.2418
 9786PW      WP34293   7.125  11.184   4.391 -0.0905 -0.1985  0.1909
 9786PW      WM34294   6.905  11.164   4.499  0.0620  0.0966  0.1697
 9787PW       W34295   9.725   3.614  11.806  0.1677 -0.6894  0.1264
 9787PW      WP34296   9.613   3.614  11.889 -0.0764 -0.1660 -0.1829
 9787PW      WM34297   9.704   3.542  11.688  0.3815 -0.2229 -0.2133
 9788PW       W34298   7.362   9.070   7.931  0.0684 -0.3502 -0.1064
 9788PW      WP34299   7.278   8.998   8.016 -0.5595 -0.3148 -0.6615
 9788PW      WM34300   7.435   9.063   8.051 -0.3855  0.0879  0.2160
 9789PW       W34301   7.869   8.253   4.888 -0.4082  0.2942  0.1684
 9789PW      WP34302   7.778   8.285   4.786 -0.5572  0.2005  0.2692
 9789PW      WM34303   7.934   8.132   4.915  0.0625  0.5534  0.2520
 9790PW       W34304  11.772   2.545   2.219 -0.2108  0.2964 -0.3586
 9790PW      WP34305  11.703   2.544   2.341 -0.1808  0.1637 -0.3416
 9790PW      WM34306  11.866   2.606   2.302 -0.0324 -0.0234 -0.3176
 9791PW       W34307   4.832   3.244  10.543 -0.1112  0.1320 -0.0249
 9791PW      WP34308   4.730   3.215  10.451  0.3614 -0.5467 -0.3788
 9791PW      WM34309   4.919   3.209  10.647 -0.4446  0.1254  0.2601
 9792PW       W34310   6.787   3.437   3.000  0.2915  0.1297  0.0327
 9792PW      WP34311   6.892   3.377   3.071  0.0824  0.3088  0.5091
 9792PW      WM34312   6.715   3.517   3.089  0.2566 -0.0217  0.1412
 9793PW       W34313   7.068   4.578   3.141 -0.0273  0.0424 -0.0749
 9793PW      WP34314   7.116   4.549   3.013 -0.1511 -0.3711 -0.0345
 9793PW      WM34315   7.005   4.454   3.156  0.4817 -0.2354 -0.1436
 9794PW       W34316  10.000   0.918   9.668  0.1143 -0.2507 -0.0857
 9794PW      WP34317   9.861   0.928   9.685  0.1151 -0.2845 -0.0587
 9794PW      WM34318   9.951   0.880   9.793 -0.4854  0.3881 -0.0930
 9795PW       W34319   7.823   3.666   8.522  0.8164 -0.0161  0.1716
 9795PW      WP34320   7.773   3.781   8.583  0.0668 -0.1475 -0.1342
 9795PW      WM34321   7.798   3.626   8.654 -0.2487 -0.1846 -0.0344
 9796PW       W34322   8.352   0.507  12.026  0.0188 -0.3055 -0.0388
 9796PW      WP34323   8.382   0.566  12.149 -0.6059 -0.2157  0.0821
 9796PW      WM34324   8.236   0.513  12.103  0.0769 -0.1933  0.0418
 9797PW       W34325   1.524   3.450   0.861 -0.0381  0.3319 -0.1594
 9797PW      WP34326   1.615   3.347   0.833 -0.0232  0.2643  0.1204
 9797PW      WM34327   1.407   3.381   0.893  0.4970 -0.3816  0.4349
 9798PW       W34328   4.568   3.846  12.322  0.1620  0.3685  0.3206
 9798PW      WP34329   4.444   3.908  12.299  0.0212 -0.0270 -0.0489
 9798PW      WM34330   4.649   3.732  12.320  0.1151  0.3370  0.1129
 9799PW       W34331  11.673   0.997   2.695  0.1375  0.3092  0.1643
 9799PW      WP34332  11.687   1.089   2.590 -0.1667  0.3293  0.1358
 9799PW      WM34333  11.801   0.954   2.732 -0.0049 -0.5788 -0.2451
 9800PW       W34334   5.697  11.334   4.078  0.0747  0.0407 -0.1252
 9800PW      WP34335   5.572  11.386   4.041  0.3177  0.4554 -0.3961
 9800PW      WM34336   5.772  11.313   4.195 -0.0032  0.0992 -0.0641
 9801PW       W34337   0.332   4.727   2.045 -0.2663  0.0283 -0.1738
 9801PW      WP34338   0.400   4.779   1.934  0.2875  0.4570  0.3283
 9801PW      WM34339   0.226   4.637   2.041  0.0721 -0.4071  0.1026
 9802PW       W34340   9.393   8.777  11.779  0.2559 -0.0495 -0.3061
 9802PW      WP34341   9.290   8.859  11.826  0.2777  0.0227 -0.3815
 9802PW      WM34342   9.531   8.764  11.757  0.2438 -0.1588 -0.3212
 9803PW       W34343   0.683   1.589  12.472 -0.2072  0.0795 -0.4738
 9803PW      WP34344   0.761   1.475  12.493 -0.3473  0.1132  0.4250
 9803PW      WM34345   0.714   1.697  12.388 -0.6587  0.4344 -0.2119
 9804PW       W34346   4.365   0.699   8.402 -0.0512  0.2796  0.1565
 9804PW      WP34347   4.490   0.763   8.403 -0.1024  0.3915  0.6493
 9804PW      WM34348   4.317   0.647   8.522  0.1929  0.0238  0.1507
 9805PW       W34349  11.032   4.645  10.051  0.1923  0.0221  0.3750
 9805PW      WP34350  11.091   4.579  10.159 -0.0761 -0.2859  0.3438
 9805PW      WM34351  11.084   4.735   9.957  0.3589 -0.2782  0.1703
 9806PW       W34352   6.454   5.865  10.485 -0.0102 -0.0241  0.1302
 9806PW      WP34353   6.578   5.800  10.483  0.0059 -0.0097  0.4314
 9806PW      WM34354   6.411   5.877  10.617  0.2614  0.4371  0.1882
 9807PW       W34355   0.756   9.836   0.289 -0.3136 -0.3233 -0.1542
 9807PW      WP34356   0.874   9.762   0.302  0.1854  0.3776 -0.3869
 9807PW      WM34357   0.764   9.949   0.208 -0.2902 -0.1600  0.0703
 9808PW       W34358  10.452   7.937   9.875  0.3609  0.1863  0.0470
 9808PW      WP34359  10.436   8.026   9.768 -0.3815  0.3542  0.2704
 9808PW      WM34360  10.317   7.975   9.876  0.3588  0.1815 -0.0171
 9809PW       W34361   1.195   6.994   0.975 -0.0093  0.0014  0.3176
 9809PW      WP34362   1.172   7.116   1.039 -0.1077 -0.0665  0.4133
 9809PW      WM34363   1.079   6.923   1.007 -0.3092  0.2444 -0.1717
 9810PW       W34364  11.756   1.759  11.431  0.3962 -0.3897 -0.0198
 9810PW      WP34365  11.766   1.755  11.292  0.5649  0.3120 -0.0458
 9810PW      WM34366  11.771   1.775  11.293 -0.0244  0.1957 -0.0140
 9811PW       W34367   7.345   1.538   1.917  0.0066 -0.2554  0.0672
 9811PW      WP34368   7.349   1.634   1.815  0.2815  0.0901  0.3879
 9811PW      WM34369   7.244   1.620   1.970  0.0090 -0.0186 -0.2705
 9812PW       W34370   0.602   5.308   1.048  0.6195  0.0480  0.0399
 9812PW      WP34371   0.512   5.339   1.151  0.2547 -0.2868 -0.1633
 9812PW      WM34372   0.625   5.173   1.078 -0.1183 -0.0841  0.1166
 9813PW       W34373   9.861  11.585   9.096 -0.4110  0.1210 -0.1026
 9813PW      WP34374   9.761  11.508   9.156 -0.2795  0.0216 -0.0083
 9813PW      WM34375   9.887  11.680   8.996  0.2073 -0.0707 -0.1472
 9814PW       W34376   0.328   9.897   4.648 -0.4393 -0.6453  0.3514
 9814PW      WP34377   0.410  10.002   4.691 -0.5949 -0.3638 -0.0138
 9814PW      WM34378   0.357   9.830   4.528 -0.0745 -0.2558  0.2111
 9815PW       W34379   5.211   2.655   3.895 -0.3021 -0.6616  0.4030
 9815PW      WP34380   5.327   2.577   3.890  0.0956 -0.0840 -0.2342
 9815PW      WM34381   5.118   2.740   3.833  0.5474  0.0679  0.0310
 9816PW       W34382  11.405   2.238   2.185 -0.1058 -0.0169 -0.0251
 9816PW      WP34383  11.427   2.175   2.308 -0.3259  0.3804  0.2287
 9816PW      WM34384  11.382   2.184   2.058  0.2755  0.2939 -0.2367
 9817PW       W34385  12.011  11.181   9.966  0.0106  0.4483 -0.1048
 9817PW      WP34386  11.983  11.312   9.928 -0.1868  0.4378 -0.0046
 9817PW      WM34387  11.956  11.215  10.090  0.0077 -0.1406  0.0699
 9818PW       W34388  10.501   0.559   4.024 -0.2790 -0.4952 -0.2578
 9818PW      WP34389  10.414   0.633   3.943 -0.0115 -0.4851 -0.5445
 9818PW      WM34390  10.608   0.469   4.030  0.2330  0.0839 -0.1685
 9819PW       W34391   9.058   0.655   9.465  0.1766  0.5304  0.0689
 9819PW      WP34392   8.975   0.603   9.364 -0.1265  0.2158  0.4628
 9819PW      WM34393   9.080   0.743   9.358 -0.6854  0.0118 -0.6140
 9820PW       W34394   5.131   1.401   4.461  0.2663  0.6644 -0.0837
 9820PW      WP34395   4.998   1.367   4.486  0.2079  0.6599 -0.3799
 9820PW      WM34396   5.061   1.513   4.507 -0.0860  0.4224 -0.0120
 9821PW       W34397   5.020   1.125  13.202  0.2913  0.1401  0.3039
 9821PW      WP34398   5.068   1.113  13.333  0.3318 -0.4390  0.2479
 9821PW      WM34399   5.068   1.057  13.089 -0.2770  0.0797  0.0837
 9822PW       W34400  10.445   2.566   2.620  0.0216 -0.1449 -0.2500
 9822PW      WP34401  10.441   2.443   2.687 -0.1596 -0.0363 -0.0551
 9822PW      WM34402  10.554   2.596   2.703  0.2646 -0.5430 -0.4097
 9823PW       W34403   6.558  11.992   9.632  0.3541 -0.0952 -0.4493
 9823PW      WP34404   6.621  12.045   9.745 -0.2501 -0.0604 -0.1041
 9823PW      WM34405   6.463  11.911   9.569  0.0397  0.0426 -0.1717
 9824PW       W34406   0.365   4.164   3.345  0.2262 -0.0650 -0.5254
 9824PW      WP34407   0.255   4.250   3.331  0.2122  0.0047 -0.0637
 9824PW      WM34408   0.423   4.107   3.231  0.8503 -0.0774 -0.2221
 9825PW       W34409   2.668  10.434  10.854  0.3949  0.0404 -0.2311
 9825PW      WP34410   2.600  10.312  10.854 -0.2975  0.4025  0.0031
 9825PW      WM34411   2.647  10.370  10.732 -0.0735  0.5341 -0.4258
 9826PW       W34412   7.547   1.002   3.673 -0.4712  0.1181  0.5231
 9826PW      WP34413   7.417   0.974   3.629 -0.3172 -0.2636  0.2833
 9826PW      WM34414   7.539   1.128   3.734 -0.2713  0.3248  0.1392
 9827PW       W34415  10.682   8.878   9.791 -0.2232 -0.1491 -0.1547
 9827PW      WP34416  10.661   8.891   9.929  0.2851 -0.2068 -0.0647
 9827PW      WM34417  10.579   8.866   9.697 -0.3403 -0.3055 -0.0086
 9828PW       W34418   0.408   5.383  12.672  0.1325 -0.1941  0.0489
 9828PW      WP34419   0.451   5.399  12.540  0.5264 -0.2928  0.1583
 9828PW      WM34420   0.510   5.395  12.767  0.2015 -0.0767 -0.0388
 9829PW       W34421  11.181   4.935   8.139 -0.0099  0.2382  0.2348
 9829PW      WP34422  11.046   4.972   8.151 -0.0489  0.2175 -0.1102
 9829PW      WM34423  11.248   5.041   8.201  0.0856  0.0664  0.4317
 9830PW       W34424   1.840   0.690   1.495 -0.2149  0.1412 -0.2237
 9830PW      WP34425   1.937   0.698   1.596 -0.0819  0.2027 -0.3552
 9830PW      WM34426   1.863   0.587   1.403  0.0187  0.0797 -0.0988
 9831PW       W34427   7.966   3.487  12.077  0.0819 -0.2776  0.1096
 9831PW      WP34428   7.886   3.373  12.094 -0.3987 -0.0325 -0.3326
 9831PW      WM34429   7.937   3.620  12.108 -0.3564 -0.2958 -0.1685
 9832PW       W34430  10.161   4.497  12.855  0.4023 -0.3854  0.1735
 9832PW      WP34431  10.174   4.462  12.990  0.0050 -0.4184  0.2121
 9832PW      WM34432  10.158   4.390  12.765 -0.2660 -0.4687  0.2672
 9833PW       W34433  10.554   3.908   9.099 -0.0418  0.3535  0.0894
 9833PW      WP34434  10.562   3.848   8.972  0.3199  0.3443  0.1128
 9833PW      WM34435  10.547   4.006   9.199  0.0257  0.2102  0.2364
 9834PW       W34436   5.955   8.666  12.515 -0.1284 -0.0667  0.0327
 9834PW      WP34437   6.027   8.610  12.620 -0.0648  0.6289  0.3872
 9834PW      WM34438   6.050   8.694  12.416 -0.2939  0.6025  0.0374
 9835PW       W34439   2.617   4.999  13.278  0.1662 -0.4585  0.4716
 9835PW      WP34440   2.742   4.950  13.239  0.1159 -0.2267 -0.0185
 9835PW      WM34441   2.506   4.917  13.252  0.1517 -0.2955 -0.0206
 9836PW       W34442   0.149   5.770   9.577 -0.1667 -0.0898 -0.5807
 9836PW      WP34443   0.060   5.730   9.678  0.4799  0.2577  0.1842
 9836PW      WM34444   0.235   5.848   9.655  0.0561 -0.5013 -0.3970
 9837PW       W34445   0.766   8.492  12.368 -0.4597 -0.2182  0.3461
 9837PW      WP34446   0.692   8.610  12.354 -0.1260 -0.0379 -0.0242
 9837PW      WM34447   0.769   8.353  12.386 -0.0950 -0.2787 -0.0764
 9838PW       W34448   7.996   9.701  11.252 -0.1135  0.0804  0.1358
 9838PW      WP34449   7.973   9.744  11.121 -0.2564 -0.3362  0.0192
 9838PW      WM34450   8.093   9.660  11.160  0.0032  0.2472  0.1817
 9839PW       W34451   1.742   5.796   3.503 -0.0975 -0.0941 -0.0101
 9839PW      WP34452   1.791   5.920   3.547  0.2643  0.0366 -0.7056
 9839PW      WM34453   1.803   5.677   3.543  0.1143 -0.0504 -0.1972
 9840PW       W34454   0.147   5.765   8.175  0.3343 -0.1895 -0.3718
 9840PW      WP34455   0.116   5.637   8.223 -0.4433  0.1431  0.1097
 9840PW      WM34456   0.272   5.704   8.191  0.2320 -0.2598  0.2692
 9841PW       W34457   7.567  10.210  12.913 -0.1217 -0.0736  0.2151
 9841PW      WP34458   7.550  10.343  12.874 -0.0728 -0.2037 -0.2810
 9841PW      WM34459   7.653  10.247  13.017 -0.1775 -0.4783  0.4175
 9842PW       W34460   5.160   9.004   5.701 -0.1228  0.0288  0.0748
 9842PW      WP34461   5.159   8.950   5.572 -0.3899 -0.1251  0.1371
 9842PW      WM34462   5.073   9.113   5.690  0.1550  0.3038  0.4454
 9843PW       W34463  10.849   0.667  11.475 -0.0911  0.7952  0.1730
 9843PW      WP34464  10.752   0.568  11.455  0.3310  0.3284  0.3302
 9843PW      WM34465  10.792   0.708  11.353  0.5398  0.2220 -0.3615
 9844PW       W34466   8.723   4.848   4.624  0.0621 -0.1314  0.2439
 9844PW      WP34467   8.622   4.755   4.597 -0.1114 -0.1171  0.7828
 9844PW      WM34468   8.627   4.937   4.672 -0.5417 -0.4640 -0.2733
 9845PW       W34469   3.061  10.268   0.536  0.1756  0.1802  0.5022
 9845PW      WP34470   2.928  10.262   0.492  0.2443 -0.6463  0.3299
 9845PW      WM34471   3.187  10.240   0.589  0.3986  0.2023  0.0129
 9846PW       W34472   1.258   2.416   3.347  0.4283 -0.3094  0.6590
 9846PW      WP34473   1.369   2.335   3.318 -0.0031 -0.6257 -0.3398
 9846PW      WM34474   1.265   2.542   3.409  0.0888 -0.0146  0.1351
 9847PW       W34475   9.513   5.054  10.612 -0.2286 -0.0632 -0.0360
 9847PW      WP34476   9.523   4.916  10.590  0.1860 -0.0072 -0.2444
 9847PW      WM34477   9.508   5.180  10.673  0.2793 -0.0160 -0.0708
 9848PW       W34478   9.984   7.035   4.251 -0.3375 -0.1776  0.2916
 9848PW      WP34479   9.911   7.110   4.158  0.0629  0.1775  0.2468
 9848PW      WM34480  10.075   7.120   4.315 -0.2251 -0.1705  0.1237
 9849PW       W34481   3.299   2.121  10.531 -0.0124 -0.3848 -0.4228
 9849PW      WP34482   3.352   2.017  10.608 -0.2324 -0.3130 -0.1664
 9849PW      WM34483   3.396   2.216  10.497 -0.3966  0.4346  0.5201
 9850PW       W34484   9.417   4.421   4.347  0.6914 -0.1849  0.0951
 9850PW      WP34485   9.389   4.390   4.481 -0.1380  0.5568  0.1383
 9850PW      WM34486   9.329   4.434   4.455 -0.0776 -0.3183 -0.4725
 9851PW       W34487  10.925   9.736   4.246 -0.2615 -0.4233 -0.5861
 9851PW      WP34488  10.981   9.761   4.120 -0.2876  0.2211 -0.4901
 9851PW      WM34489  10.799   9.795   4.265 -0.0974 -0.1504 -0.2934
 9852PW       W34490   9.698  10.424   2.637 -0.6180 -0.2035  0.4091
 9852PW      WP34491   9.712  10.513   2.530 -0.2817 -0.0887  0.5411
 9852PW      WM34492   9.622  10.325   2.573 -0.1914 -0.1485 -0.2258
 9853PW       W34493   0.090   0.891  10.251 -0.5429  0.1692 -0.1197
 9853PW      WP34494  -0.023   0.829  10.306 -0.5705  0.4157  0.1178
 9853PW      WM34495   0.116   1.014  10.189  0.0506 -0.0516 -0.3375
 9854PW       W34496   9.852   4.710   9.527 -0.1189  0.2242 -0.8757
 9854PW      WP34497   9.970   4.785   9.526  0.4854 -0.6587 -0.8566
 9854PW      WM34498   9.803   4.580   9.507 -0.2569 -0.0190  0.5278
 9855PW       W34499   8.721  10.302   0.133  0.2450  0.0345  0.1603
 9855PW      WP34500   8.836  10.356   0.074  0.0855  0.4291  0.1966
 9855PW      WM34501   8.742  10.165   0.112  0.7392  0.1067  0.1221
 9856PW       W34502   0.648   1.690   5.232 -0.1884 -0.2720 -0.1189
 9856PW      WP34503   0.546   1.773   5.183  0.2655  0.0823 -0.5257
 9856PW      WM34504   0.636   1.604   5.122  0.0460 -0.3311 -0.1013
 9857PW       W34505   9.691  11.303   9.773  0.2995 -0.2495  0.3932
 9857PW      WP34506   9.600  11.222   9.841 -0.8753  0.5422 -0.0649
 9857PW      WM34507   9.697  11.421   9.849  0.3357  0.0346 -0.0353
 9858PW       W34508   4.651   3.539   8.964 -0.3122 -0.0823  0.1307
 9858PW      WP34509   4.522   3.592   8.964 -0.2785  0.0039  0.2530
 9858PW      WM34510   4.771   3.540   9.036 -0.2045 -0.0649 -0.0456
 9859PW       W34511   4.484   2.254  10.740 -0.1625  0.1774 -0.0373
 9859PW      WP34512   4.407   2.298  10.632 -0.1692 -0.1268 -0.1599
 9859PW      WM34513   4.532   2.131  10.695 -0.5368  0.0767 -0.1806
 9860PW       W34514   9.847   2.255   3.447 -0.0470 -0.1929 -0.2395
 9860PW      WP34515   9.781   2.378   3.438 -0.0880 -0.2209 -0.3248
 9860PW      WM34516   9.971   2.272   3.510 -0.1795  0.1965 -0.0648
 9861PW       W34517   3.999   8.284   5.074  0.1608 -0.2053 -0.0766
 9861PW      WP34518   3.873   8.295   5.133  0.4102  0.3483  0.3944
 9861PW      WM34519   3.898   8.343   4.997  0.1215  0.2963  0.3327
 9862PW       W34520   1.956   9.967  10.063  0.1705 -0.1837  0.0754
 9862PW      WP34521   1.931  10.104  10.082 -0.3232 -0.2786  0.1581
 9862PW      WM34522   1.901   9.890   9.960 -0.0566 -0.0810  0.1171
 9863PW       W34523   9.178   4.320   9.212 -0.0284 -0.0126  0.3016
 9863PW      WP34524   9.199   4.394   9.095 -0.6947 -0.2431  0.0120
 9863PW      WM34525   9.125   4.434   9.274  0.0272  0.2203 -0.0626
 9864PW       W34526   9.195   8.789   4.532 -0.0884  0.1841  0.3520
 9864PW      WP34527   9.318   8.845   4.571 -0.0765  0.1888  0.3087
 9864PW      WM34528   9.242   8.889   4.445 -0.5314  0.5147  0.4748
 9865PW       W34529   8.409   6.613   3.208  0.3637  0.1724 -0.2947
 9865PW      WP34530   8.520   6.641   3.288  0.4925  0.4578 -0.5624
 9865PW      WM34531   8.398   6.674   3.333  0.4802 -0.1142 -0.1424
 9866PW       W34532   9.110   1.433   3.524  0.0956  0.0735  0.0488
 9866PW      WP34533   9.185   1.546   3.560  0.0708  0.1988 -0.2788
 9866PW      WM34534   9.045   1.502   3.628 -0.1867  0.2067 -0.2071
 9867PW       W34535   7.163   6.615   0.594  0.0339 -0.0027 -0.4187
 9867PW      WP34536   7.052   6.660   0.666  0.2837  0.0067 -0.0229
 9867PW      WM34537   7.235   6.514   0.530  0.5409  0.1181 -0.0712
 9868PW       W34538   1.795   4.871  10.550 -0.2680 -0.1334 -0.1469
 9868PW      WP34539   1.829   4.853  10.685 -0.0408 -0.1962 -0.2117
 9868PW      WM34540   1.797   4.986  10.629 -0.0041 -0.0940 -0.2071
 9869PW       W34541  10.476   4.539   9.758 -0.1566 -0.1315 -0.0517
 9869PW      WP34542  10.569   4.440   9.793 -0.1059 -0.2285 -0.4346
 9869PW      WM34543  10.487   4.652   9.676  0.1992 -0.4600 -0.4817
 9870PW       W34544  11.153   1.602   9.496  0.1873 -0.1316  0.3463
 9870PW      WP34545  11.168   1.463   9.499  0.1518 -0.1418  0.1387
 9870PW      WM34546  11.034   1.598   9.423  0.3399 -0.0004  0.0820
 9871PW       W34547   3.731  11.636   2.906 -0.0937 -0.0294  0.0145
 9871PW      WP34548   3.851  11.655   2.838 -0.0588 -0.0507  0.0699
 9871PW      WM34549   3.593  11.616   2.921 -0.2388  0.4123 -0.5492
 9872PW       W34550   6.643   8.128   9.583 -0.2071 -0.1253 -0.3226
 9872PW      WP34551   6.629   8.262   9.545 -0.0455  0.0547  0.2030
 9872PW      WM34552   6.625   8.010   9.656 -0.2796 -0.0146 -0.1593
 9873PW       W34553   8.719   4.030   9.661 -0.1965 -0.0745 -0.0686
 9873PW      WP34554   8.826   4.005   9.748  0.0550  0.1767 -0.2927
 9873PW      WM34555   8.601   3.996   9.729 -0.0371 -0.6475 -0.0596
 9874PW       W34556   3.000   0.698  10.099 -0.0435  0.4009  0.0586
 9874PW      WP34557   3.083   0.596  10.145 -0.2171  0.2571  0.0568
 9874PW      WM34558   3.021   0.831  10.060 -0.2783  0.3465 -0.2777
 9875PW       W34559   9.119   2.137   8.983 -0.2559 -0.0509  0.4366
 9875PW      WP34560   9.024   2.230   8.940  0.3891  0.2265 -0.5582
 9875PW      WM34561   9.164   2.202   8.868 -0.2234 -0.5436  0.1563
 9876PW       W34562  -0.031  10.789   8.769  0.2453 -0.1141  0.2421
 9876PW      WP34563   0.026  10.672   8.718 -0.0882 -0.4667  0.6412
 9876PW      WM34564   0.032  10.805   8.894  0.3414  0.4152  0.1411
 9877PW       W34565   3.647  11.678   2.417  0.2675  0.0311  0.1915
 9877PW      WP34566   3.618  11.788   2.335  0.1106  0.1205  0.3641
 9877PW      WM34567   3.551  11.584   2.376  0.0369  0.4737 -0.3606
 9878PW       W34568   5.225   0.420   2.555 -0.3433 -0.1144  0.0462
 9878PW      WP34569   5.145   0.519   2.498 -0.0682  0.2513  0.2727
 9878PW      WM34570   5.259   0.357   2.435  0.0880  0.3721 -0.1057
 9879PW       W34571   6.861   6.008   3.466  0.0421  0.0377  0.3481
 9879PW      WP34572   6.893   5.904   3.378  0.2959  0.3237  0.0907
 9879PW      WM34573   6.871   6.146   3.442  0.1754  0.0430  0.4291
 9880PW       W34574  11.362  10.224   4.482  0.3261  0.6079  0.7027
 9880PW      WP34575  11.360  10.136   4.590  0.3434 -0.1914  0.1008
 9880PW      WM34576  11.389  10.260   4.349 -0.2383 -0.2190  0.3200
 9881PW       W34577   7.313   2.357   4.715 -0.2267  0.2309 -0.1574
 9881PW      WP34578   7.182   2.405   4.728 -0.2322  0.1141  0.2646
 9881PW      WM34579   7.290   2.432   4.831  0.1228  0.3641 -0.1690
 9882PW       W34580   5.902   6.072  11.626  0.2187  0.7396  0.1552
 9882PW      WP34581   5.991   6.038  11.728 -0.3308 -0.3836  0.3395
 9882PW      WM34582   5.967   6.074  11.502 -0.2011 -0.2544 -0.1311
 9883PW       W34583   0.019   3.808   0.768  0.0096  0.2812 -0.1753
 9883PW      WP34584  -0.004   3.745   0.891 -0.4101  0.3943 -0.1866
 9883PW      WM34585   0.016   3.931   0.702 -0.0964 -0.0113 -0.7513
 9884PW       W34586   2.292   7.539  11.112  0.2614  0.0570 -0.4319
 9884PW      WP34587   2.398   7.476  11.045  0.5848  0.2791 -0.1495
 9884PW      WM34588   2.245   7.652  11.045 -0.0507 -0.1523 -0.5793
 9885PW       W34589  11.621   8.476   9.786  0.3190  0.4144 -0.3355
 9885PW      WP34590  11.491   8.501   9.740  0.1386  0.3238  0.0942
 9885PW      WM34591  11.711   8.553   9.860  0.1780  0.5503 -0.3025
 9886PW       W34592  11.555  10.501   2.699 -0.0984 -0.2604  0.0678
 9886PW      WP34593  11.454  10.571   2.765 -0.0778 -0.1282 -0.0401
 9886PW      WM34594  11.672  10.577   2.688 -0.2310 -0.0697 -0.0470
 9887PW       W34595  10.034   9.546   0.145 -0.1307 -0.4389  0.0470
 9887PW      WP34596   9.958   9.455   0.070  0.0812 -0.0400 -0.7022
 9887PW      WM34597  10.025   9.653   0.056 -0.1384  0.0899  0.6424
 9888PW       W34598   8.002   9.074   8.614 -0.1935  0.1776  0.1448
 9888PW      WP34599   7.894   9.151   8.570  0.0190  0.1605 -0.4544
 9888PW      WM34600   8.076   9.142   8.712  0.0271 -0.2903  0.3238
 9889PW       W34601   9.051  10.974  10.680  0.3045 -0.2369  0.1764
 9889PW      WP34602   8.943  11.024  10.754  0.3567 -0.1183  0.1743
 9889PW      WM34603   9.153  11.066  10.653  0.0657  0.2084  0.6836
 9890PW       W34604   8.170   6.611   1.470  0.1122 -0.2398 -0.4850
 9890PW      WP34605   8.058   6.527   1.473  0.0103 -0.1186  0.3822
 9890PW      WM34606   8.229   6.599   1.596 -0.4951 -0.2980 -0.1908
 9891PW       W34607   2.275  11.980   5.438  0.0450 -0.5000 -0.2472
 9891PW      WP34608   2.305  11.952   5.304  0.2418 -0.3935 -0.2285
 9891PW      WM34609   2.168  11.896   5.470 -0.2199 -0.1056 -0.0540
 9892PW       W34610   8.885   2.377  12.808 -0.1246 -0.0877  0.4933
 9892PW      WP34611   8.927   2.503  12.765 -0.2792 -0.3274 -0.4847
 9892PW      WM34612   8.745   2.372  12.805 -0.1243  0.0019  0.1888
 9893PW       W34613  11.743   6.603  12.841 -0.0828 -0.4404  0.0811
 9893PW      WP34614  11.743   6.590  12.980 -0.0892  0.2475  0.1597
 9893PW      WM34615  11.624   6.650  12.784  0.1131 -0.0980 -0.0590
 9894PW       W34616   1.036   3.963  12.778 -0.2051  0.3853  0.0984
 9894PW      WP34617   1.135   3.990  12.682  0.0893 -0.6283  0.0606
 9894PW      WM34618   1.001   3.918  12.906  0.0389 -0.1836 -0.0190
 9895PW       W34619  11.530   5.846  12.077  0.1918  0.6000  0.0412
 9895PW      WP34620  11.488   5.779  12.192  0.5564  0.0767 -0.1126
 9895PW      WM34621  11.426   5.892  11.995 -0.0506  0.0452  0.0178
 9896PW       W34622   2.501   1.144   8.889 -0.2862 -0.3471  0.0374
 9896PW      WP34623   2.499   1.008   8.855  0.3205 -0.4359  0.3007
 9896PW      WM34624   2.396   1.237   8.885 -0.0065 -0.0243  0.0330
 9897PW       W34625   8.025   0.170  11.970 -0.3948 -0.0846  0.5701
 9897PW      WP34626   8.130   0.122  12.049  0.2144  0.4485  0.1418
 9897PW      WM34627   7.978   0.301  11.987 -0.6207 -0.0456 -0.1704
 9898PW       W34628   3.854  10.221   8.614  0.0437  0.5535 -0.2773
 9898PW      WP34629   3.752  10.244   8.521 -0.1777  0.6859 -0.0083
 9898PW      WM34630   3.801  10.292   8.723 -0.0717 -0.1808  0.1766
 9899PW       W34631  11.434   6.391   9.453 -0.2372  0.1005  0.1911
 9899PW      WP34632  11.363   6.363   9.570 -0.3709 -0.1543  0.0542
 9899PW      WM34633  11.379   6.321   9.345  0.3961 -0.1230 -0.0137
 9900PW       W34634   1.972  11.196  10.543  0.5933 -0.0679  0.2456
 9900PW      WP34635   2.063  11.090  10.535  0.1547 -0.4375 -0.2259
 9900PW      WM34636   2.061  11.277  10.613  0.1745  0.2575  0.4247
 9901PW       W34637   4.984   2.088   2.919  0.0608 -0.2522 -0.2145
 9901PW      WP34638   4.887   2.019   2.845 -0.1534 -0.2692  0.0728
 9901PW      WM34639   4.988   2.101   2.780  0.3136 -0.0554 -0.1927
 9902PW       W34640   3.059   3.536  12.831  0.5463 -0.1632  0.3628
 9902PW      WP34641   3.180   3.525  12.761  0.1763 -0.1865 -0.3194
 9902PW      WM34642   2.989   3.639  12.895  0.0083 -0.5031  0.3609
 9903PW       W34643   3.925   7.848  10.282 -0.0987  0.0633  0.3815
 9903PW      WP34644   4.058   7.827  10.244 -0.2911 -0.4546 -0.0816
 9903PW      WM34645   3.908   7.981  10.322  0.2736  0.0026  0.7723
 9904PW       W34646   0.944   8.862   4.278  0.0721  0.4253 -0.2370
 9904PW      WP34647   0.812   8.901   4.302 -0.1135 -0.0285 -0.4548
 9904PW      WM34648   1.062   8.787   4.281 -0.1506  0.0748  0.1750
 9905PW       W34649  11.502  10.217   3.551  0.4187 -0.3638 -0.1253
 9905PW      WP34650  11.515  10.215   3.690  0.1050 -0.0665 -0.0858
 9905PW      WM34651  11.531  10.276   3.427 -0.1677 -0.0617 -0.1338
 9906PW       W34652  11.501   0.095   0.892  0.1497 -0.6442 -0.5000
 9906PW      WP34653  11.439   0.034   1.002  0.0294  0.0660 -0.1452
 9906PW      WM34654  11.454   0.132   0.766 -0.0570 -0.3355 -0.3394
 9907PW       W34655   6.856   3.887  12.654 -0.6668  0.0926 -0.1747
 9907PW      WP34656   6.941   3.913  12.545  0.0393 -0.4231  0.2108
 9907PW      WM34657   6.860   3.944  12.782  0.0321 -0.0638 -0.1063
 9908PW       W34658   5.467  11.829  12.354 -0.3166 -0.2548  0.2813
 9908PW      WP34659   5.576  11.812  12.442  0.0544  0.2177 -0.0601
 9908PW      WM34660   5.498  11.965  12.351 -0.3750 -0.2445 -0.1678
 9909PW       W34661   6.905   4.134   2.425 -0.1242 -0.1372 -0.0625
 9909PW      WP34662   6.868   4.020   2.351  0.0492 -0.1769 -0.0908
 9909PW      WM34663   6.928   4.240   2.513 -0.2976 -0.1520  0.0013
 9910PW       W34664   7.206   1.251  13.096 -0.1667 -0.2500 -0.2521
 9910PW      WP34665   7.119   1.146  13.126 -0.2347 -0.0981  0.1178
 9910PW      WM34666   7.184   1.389  13.084 -0.0909 -0.2026  0.0964
 9911PW       W34667   8.321   0.458  11.491 -0.1327 -0.2485  0.1826
 9911PW      WP34668   8.411   0.375  11.423 -0.2623  0.0698 -0.4178
 9911PW      WM34669   8.433   0.385  11.533  0.1825  0.0251 -0.1409
 9912PW       W34670   9.582   9.164   2.659 -0.1324 -0.0641 -0.0588
 9912PW      WP34671   9.719   9.184   2.682 -0.1946  0.0755  0.2075
 9912PW      WM34672   9.611   9.298   2.688 -0.2576 -0.0327 -0.0772
 9913PW       W34673   5.248   6.652   4.515 -0.3035 -0.1711  0.3863
 9913PW      WP34674   5.361   6.684   4.592 -0.1255 -0.5123  0.2767
 9913PW      WM34675   5.266   6.530   4.450  0.2414  0.1530 -0.1248
 9914PW       W34676   5.912   9.947  11.365  0.0780 -0.0775 -0.1628
 9914PW      WP34677   5.785   9.952  11.304 -0.0070 -0.4435 -0.0271
 9914PW      WM34678   5.813   9.908  11.457 -0.0095 -0.2441 -0.3234
 9915PW       W34679   8.982   4.369   2.951  0.1335  0.1809 -0.2678
 9915PW      WP34680   8.981   4.308   3.077  0.2338 -0.1666 -0.4296
 9915PW      WM34681   9.118   4.382   2.981  0.1492 -0.5904  0.1160
 9916PW       W34682   7.834   5.865   2.152 -0.2059 -0.0281 -0.0431
 9916PW      WP34683   7.791   5.996   2.175  0.2269  0.0486  0.4233
 9916PW      WM34684   7.950   5.807   2.099 -0.1192 -0.3642  0.4732
 9917PW       W34685   7.834  10.105  10.666 -0.0949 -0.5301  0.3651
 9917PW      WP34686   7.720  10.179  10.702  0.0021 -0.2301  0.0780
 9917PW      WM34687   7.940  10.015  10.656  0.4258  0.0673  0.1732
 9918PW       W34688   4.648  11.391   4.513 -0.3251  0.1167  0.1627
 9918PW      WP34689   4.599  11.357   4.639 -0.0417 -0.1934  0.1966
 9918PW      WM34690   4.651  11.500   4.424  0.2721 -0.0677 -0.0707
 9919PW       W34691   8.060   7.628  12.549 -0.0584  0.3155 -0.6499
 9919PW      WP34692   7.920   7.619  12.552 -0.0620  0.2541  0.1622
 9919PW      WM34693   8.147   7.520  12.566 -0.2146  0.2451 -0.2168
 9920PW       W34694   6.813   7.156   1.807  0.0832  0.1274 -0.4606
 9920PW      WP34695   6.924   7.103   1.873  0.0048  0.3605 -0.1261
 9920PW      WM34696   6.798   7.281   1.869  0.2156 -0.2257  0.3346
 9921PW       W34697   0.237  11.533  12.730 -0.0307  0.1139  0.3891
 9921PW      WP34698   0.218  11.671  12.711  0.2666  0.1052 -0.0412
 9921PW      WM34699   0.293  11.409  12.761  0.1772  0.0777 -0.0955
 9922PW       W34700   8.493   7.634   8.421  0.0989 -0.4133  0.3089
 9922PW      WP34701   8.415   7.613   8.535 -0.1323  0.0888  0.2563
 9922PW      WM34702   8.504   7.701   8.543 -0.4739  0.4285 -0.0542
 9923PW       W34703   6.664   2.975   9.775  0.1902  0.2499 -0.3634
 9923PW      WP34704   6.646   3.020   9.644  0.2008 -0.4610 -0.6286
 9923PW      WM34705   6.529   2.994   9.807  0.0822 -0.0071 -0.6490
 9924PW       W34706   0.187   5.488  13.163  0.0847 -0.0271  0.0769
 9924PW      WP34707   0.266   5.604  13.160  0.5892 -0.3562  0.0167
 9924PW      WM34708   0.074   5.471  13.082  0.1555 -0.0872 -0.0097
 9925PW       W34709  10.238   9.025   8.975  0.1389 -0.0335  0.3484
 9925PW      WP34710  10.336   8.983   8.884  0.1346  0.4840  0.0849
 9925PW      WM34711  10.143   9.060   9.072  0.0005 -0.4453  0.3711
 9926PW       W34712   1.632   4.991   0.178 -0.1193  0.0058  0.0453
 9926PW      WP34713   1.651   5.117   0.238  0.1529 -0.0943  0.1822
 9926PW      WM34714   1.548   5.025   0.072  0.4228  0.0198 -0.4022
 9927PW       W34715  11.169   0.490   4.601 -0.1739  0.1632 -0.0935
 9927PW      WP34716  11.062   0.578   4.585 -0.3181 -0.0272 -0.2025
 9927PW      WM34717  11.169   0.545   4.472  0.4903 -0.3456 -0.3421
 9928PW       W34718   4.120  11.696   2.728  0.0021 -0.2574  0.1164
 9928PW      WP34719   4.249  11.741   2.698 -0.1679 -0.0290 -0.3137
 9928PW      WM34720   3.989  11.671   2.770 -0.1450 -0.6073 -0.4924
 9929PW       W34721   1.608   5.283  12.316 -0.0218 -0.0270  0.0758
 9929PW      WP34722   1.707   5.189  12.346 -0.3527 -0.5406 -0.3547
 9929PW      WM34723   1.623   5.414  12.269  0.1363  0.1400  0.5649
 9930PW       W34724   3.146   3.056  12.757 -0.1242  0.1604  0.2550
 9930PW      WP34725   3.213   3.072  12.878  0.0657 -0.0507  0.1808
 9930PW      WM34726   3.138   2.916  12.750 -0.4451  0.1903 -0.2087
 9931PW       W34727   9.605   7.608  12.778 -0.2478  0.2459  0.0200
 9931PW      WP34728   9.527   7.520  12.854 -0.3700  0.4510  0.1400
 9931PW      WM34729   9.655   7.732  12.736  0.5049  0.0238  0.1885
 9932PW       W34730   4.050   6.239   5.143  0.0009 -0.2715  0.2313
 9932PW      WP34731   4.152   6.279   5.229 -0.2186 -0.1642  0.4477
 9932PW      WM34732   4.013   6.347   5.223  0.1369  0.1943 -0.3017
 9933PW       W34733   4.240   4.823  10.196  0.0170 -0.4381 -0.4923
 9933PW      WP34734   4.205   4.946  10.253  0.1514 -0.5282 -0.2005
 9933PW      WM34735   4.181   4.862  10.075 -0.0098  0.1406 -0.3076
 9934PW       W34736   0.073   8.761  11.575 -0.1427  0.2049  0.0259
 9934PW      WP34737   0.085   8.731  11.712 -0.0398 -0.0590 -0.0380
 9934PW      WM34738   0.056   8.858  11.675  0.3852  0.3933 -0.0528
 9935PW       W34739   1.411   9.280   1.519 -0.1369 -0.2351 -0.3144
 9935PW      WP34740   1.505   9.350   1.443  0.0781 -0.6472 -0.4421
 9935PW      WM34741   1.408   9.250   1.656  0.2342  0.0298 -0.2406
 9936PW       W34742   0.596   8.306   9.851 -0.2061  0.2173 -0.0895
 9936PW      WP34743   0.512   8.346   9.746 -0.1872  0.1673 -0.1238
 9936PW      WM34744   0.724   8.355   9.880 -0.0858 -0.2120  0.1464
 9937PW       W34745  11.486   6.204  11.124 -0.2394  0.2900  0.4280
 9937PW      WP34746  11.352   6.207  11.164 -0.2306  0.0204  0.4931
 9937PW      WM34747  11.617   6.157  11.114 -0.3592  0.0636 -0.6951
 9938PW       W34748   9.907   6.094   2.590  0.0468  0.0538 -0.2406
 9938PW      WP34749   9.832   6.071   2.706  0.3974 -0.1443 -0.0429
 9938PW      WM34750   9.944   6.049   2.462  0.8342 -0.1524  0.0293
 9939PW       W34751  10.373   6.417  10.889 -0.0731 -0.4620 -0.0362
 9939PW      WP34752  10.248   6.355  10.899 -0.2353 -0.2400 -0.5063
 9939PW      WM34753  10.410   6.433  11.023 -0.7813 -0.2461  0.1551
 9940PW       W34754   7.423   1.448   9.400  0.1612 -0.1157  0.2566
 9940PW      WP34755   7.390   1.316   9.367  0.1799 -0.1553  0.3952
 9940PW      WM34756   7.316   1.537   9.407  0.4978  0.3103  0.2138
 9941PW       W34757  12.045   1.102   2.373 -0.1015  0.1738 -0.0945
 9941PW      WP34758  11.959   1.046   2.279 -0.2123 -0.0874  0.1567
 9941PW      WM34759  12.162   1.033   2.408 -0.0203  0.2606 -0.1897
 9942PW       W34760  10.449  10.970  12.833 -0.0468 -0.5256  0.0526
 9942PW      WP34761  10.554  10.883  12.802  0.3366 -0.0088 -0.1920
 9942PW      WM34762  10.315  10.980  12.872 -0.0476  0.1531 -0.0576
 9943PW       W34763   9.626   7.185   2.653 -0.3039 -0.2413  0.1088
 9943PW      WP34764   9.649   7.319   2.620  0.5903 -0.3622  0.1178
 9943PW      WM34765   9.680   7.217   2.778  0.1261  0.4995 -0.2338
 9944PW       W34766   9.866   6.077  12.381 -0.1290 -0.1516 -0.1055
 9944PW      WP34767   9.870   6.135  12.509 -0.0456  0.3706 -0.3318
 9944PW      WM34768  10.002   6.104  12.366 -0.1887  0.3600  0.1318
 9945PW       W34769   7.576   3.241   4.955  0.0192  0.3342 -0.1897
 9945PW      WP34770   7.571   3.331   5.062  0.1323  0.0658  0.0482
 9945PW      WM34771   7.701   3.188   4.922 -0.0767  0.1192 -0.2180
 9946PW       W34772   2.987   1.414   3.204 -0.4556 -0.2383  0.3340
 9946PW      WP34773   2.893   1.477   3.285 -0.5080 -0.2901  0.3135
 9946PW      WM34774   2.940   1.288   3.166 -0.1063 -0.3009  0.0804
 9947PW       W34775   2.411   8.044   9.398  0.0621  0.0086 -0.3581
 9947PW      WP34776   2.302   7.956   9.400 -0.0040  0.0904 -0.3137
 9947PW      WM34777   2.459   8.015   9.270  0.1929  0.1831 -0.3499
 9948PW       W34778   8.659  10.707  10.544 -0.1785 -0.0541  0.1532
 9948PW      WP34779   8.712  10.825  10.491  0.2160 -0.0163  0.5972
 9948PW      WM34780   8.695  10.777  10.660  0.2655 -0.1177  0.0625
 9949PW       W34781   0.594   2.273   1.174  0.0242  0.1354 -0.1127
 9949PW      WP34782   0.506   2.369   1.225 -0.5299 -0.0472 -0.6550
 9949PW      WM34783   0.554   2.221   1.050  0.3203 -0.4136  0.0055
 9950PW       W34784   8.322   8.024  10.002  0.2365  0.2829  0.3025
 9950PW      WP34785   8.208   8.046   9.924  0.3247 -0.4375 -0.0742
 9950PW      WM34786   8.432   8.020  10.089 -0.1396  0.4757  0.8149
 9951PW       W34787   3.064  11.772   2.988 -0.4896  0.3167 -0.1413
 9951PW      WP34788   3.173  11.839   2.933  0.0171 -0.0999  0.3039
 9951PW      WM34789   3.008  11.674   2.904 -0.0234 -0.1201  0.0306
 9952PW       W34790   0.155   4.528   4.087  0.1792 -0.1139  0.1418
 9952PW      WP34791   0.285   4.574   4.112  0.1282 -0.1167  0.4353
 9952PW      WM34792   0.075   4.577   4.191  0.2470  0.0484  0.1184
 9953PW       W34793   2.620   7.441   5.286  0.1901  0.1025  0.1114
 9953PW      WP34794   2.486   7.427   5.247  0.2127  0.2446 -0.0202
 9953PW      WM34795   2.592   7.571   5.328  0.4658  0.1384  0.1936
 9954PW       W34796   5.446   2.270  10.362 -0.1964  0.0059  0.4045
 9954PW      WP34797   5.377   2.237  10.244  0.0475 -0.5632  0.4039
 9954PW      WM34798   5.524   2.153  10.357  0.3163  0.3383 -0.1511
 9955PW       W34799   8.340   4.075   4.011  0.2037 -0.0969 -0.1525
 9955PW      WP34800   8.295   4.189   4.078  0.3386 -0.2457  0.2073
 9955PW      WM34801   8.428   3.985   4.072  0.2704  0.2243  0.2449
 9956PW       W34802   2.579  11.103   3.593 -0.3270 -0.0400 -0.0280
 9956PW      WP34803   2.585  10.969   3.553  0.4248 -0.1300  0.3081
 9956PW      WM34804   2.640  11.229   3.588 -0.2675 -0.0748 -0.2250
 9957PW       W34805   2.110   9.461   9.927  0.0109 -0.0289 -0.3289
 9957PW      WP34806   2.214   9.419   9.843  0.2474  0.1416 -0.1286
 9957PW      WM34807   2.229   9.457  10.001 -0.0238  0.1780 -0.2611
 9958PW       W34808   5.138   4.920   0.663 -0.0956 -0.1664  0.3070
 9958PW      WP34809   5.096   4.945   0.794 -0.1136 -0.0218  0.2748
 9958PW      WM34810   5.277   4.900   0.655 -0.0566  0.0260  0.4678
 9959PW       W34811   8.473   3.626  10.656 -0.1221 -0.2674 -0.1946
 9959PW      WP34812   8.344   3.573  10.650 -0.2629  0.0343  0.0101
 9959PW      WM34813   8.442   3.761  10.637  0.1218 -0.2025 -0.1550
 9960PW       W34814   1.824   0.866  12.488 -0.1634 -0.1214 -0.3119
 9960PW      WP34815   1.842   1.001  12.456 -0.8219  0.1965  0.4828
 9960PW      WM34816   1.932   0.813  12.417  0.1023  0.3906 -0.3181
 9961PW       W34817   4.061   7.218   4.054  0.1259  0.3535  0.2906
 9961PW      WP34818   4.099   7.138   4.162  0.5952 -0.6410 -0.5267
 9961PW      WM34819   4.076   7.152   3.932  0.3069  0.4576  0.2550
 9962PW       W34820   5.254   1.209   3.129 -0.0746 -0.0909  0.4099
 9962PW      WP34821   5.157   1.304   3.093 -0.1981 -0.4819 -0.4033
 9962PW      WM34822   5.269   1.085   3.191  0.1663 -0.0890  0.3626
 9963PW       W34823   3.723   1.041   4.662  0.0046 -0.1800  0.0233
 9963PW      WP34824   3.734   1.025   4.801 -0.3798 -0.1780  0.0616
 9963PW      WM34825   3.753   0.972   4.544 -0.2092 -0.1237 -0.0679
 9964PW       W34826   4.741   0.976   4.634 -0.3984  0.4664  0.1102
 9964PW      WP34827   4.722   0.849   4.691  0.3780  0.2471 -0.0526
 9964PW      WM34828   4.664   0.999   4.519 -0.5769 -1.0662 -0.1806
 9965PW       W34829  10.443   2.366   5.080 -0.1197  0.1164  0.0408
 9965PW      WP34830  10.519   2.449   5.164 -0.0534 -0.1957  0.3053
 9965PW      WM34831  10.469   2.245   5.014 -0.3327  0.0760  0.0281
 9966PW       W34832   5.736   8.574   5.393 -0.0772 -0.2843 -0.1610
 9966PW      WP34833   5.683   8.700   5.424 -0.0139 -0.2849 -0.0446
 9966PW      WM34834   5.756   8.577   5.255  0.0958  0.1183 -0.1318
 9967PW       W34835   5.204  10.973   4.671  0.0420 -0.1015 -0.0829
 9967PW      WP34836   5.337  11.014   4.686 -0.0015  0.0657 -0.1494
 9967PW      WM34837   5.070  10.948   4.703  0.0987  0.1101  0.3579
 9968PW       W34838   8.330   8.691   9.343 -0.2363 -0.5130 -0.1730
 9968PW      WP34839   8.228   8.751   9.269  0.0328  0.0170 -0.1365
 9968PW      WM34840   8.377   8.586   9.262 -0.2748 -0.5387 -0.1622
 9969PW       W34841   6.520   0.983  13.173  0.5905 -0.4473 -0.2329
 9969PW      WP34842   6.448   0.865  13.195 -0.2172  0.0087 -0.2107
 9969PW      WM34843   6.530   0.997  13.034  0.0342  0.1418 -0.2374
 9970PW       W34844   1.922  11.069  11.503  0.0246  0.3742 -0.0557
 9970PW      WP34845   2.009  11.007  11.593 -0.0181 -0.0150 -0.2726
 9970PW      WM34846   1.960  11.196  11.457  0.1569  0.3544 -0.0037
 9971PW       W34847   9.949   9.485   4.557 -0.0737 -0.5493 -0.2677
 9971PW      WP34848   9.877   9.492   4.436 -0.7599  0.1024  0.1362
 9971PW      WM34849  10.041   9.501   4.661 -0.3673 -0.0870 -0.0644
 9972PW       W34850   8.616   2.222   8.921 -0.5941 -0.1865 -0.2165
 9972PW      WP34851   8.559   2.142   8.822 -0.4295 -0.2955 -0.2256
 9972PW      WM34852   8.670   2.203   9.049 -0.4641  0.4046 -0.1685
 9973PW       W34853   4.191   8.270  12.967 -0.2216 -0.1282 -0.3571
 9973PW      WP34854   4.146   8.393  12.917  0.7148  0.4449  0.0792
 9973PW      WM34855   4.236   8.144  12.927  0.6735 -0.1228  0.4720
 9974PW       W34856   5.795   1.526  10.176  0.3223  0.3965  0.3292
 9974PW      WP34857   5.819   1.430  10.276 -0.1523  0.1554  0.2312
 9974PW      WM34858   5.664   1.576  10.183  0.1181 -0.0957  0.3034
 9975PW       W34859   1.835   0.758   4.595  0.4651 -0.1063  0.3505
 9975PW      WP34860   1.955   0.756   4.667  0.6661 -0.3255  0.0224
 9975PW      WM34861   1.751   0.649   4.569  0.2820  0.1284 -0.1005
 9976PW       W34862   9.732   5.216   3.978  0.0470  0.1262  0.2071
 9976PW      WP34863   9.797   5.229   3.855  0.7502 -0.2773  0.5111
 9976PW      WM34864   9.645   5.312   4.033  0.0330  0.1164  0.2023
 9977PW       W34865   4.641  10.759   1.477  0.0247  0.1508  0.0088
 9977PW      WP34866   4.761  10.747   1.406 -0.3834 -0.1094 -0.6922
 9977PW      WM34867   4.615  10.744   1.613 -0.4279  0.0272 -0.0843
 9978PW       W34868   5.717   5.143   4.145 -0.3454  0.1917 -0.0773
 9978PW      WP34869   5.759   5.275   4.126 -0.4986  0.2303 -0.1559
 9978PW      WM34870   5.771   5.057   4.049 -0.5287  0.1247 -0.1221
 9979PW       W34871  10.088   4.160   9.513  0.2528 -0.1395  0.1631
 9979PW      WP34872  10.205   4.205   9.451 -0.0339 -0.0647 -0.3513
 9979PW      WM34873  10.144   4.261   9.592 -0.4209  0.5014 -0.1099
 9980PW       W34874   6.262   0.796  11.580  0.0259  0.0873 -0.0708
 9980PW      WP34875   6.185   0.720  11.669 -0.0956  0.4154  0.1099
 9980PW      WM34876   6.331   0.910  11.538  0.0030  0.1844  0.1488
 9981PW       W34877   0.414   0.140   3.435  0.7570 -0.2292  0.3219
 9981PW      WP34878   0.440   0.211   3.317  0.1117 -0.0698  0.2597
 9981PW      WM34879   0.394   0.001   3.431  0.3227 -0.1693 -0.0889
 9982PW       W34880  11.878   3.098   9.841 -0.1032 -0.0569 -0.1339
 9982PW      WP34881  11.809   2.981   9.808 -0.4668 -0.0107  0.4019
 9982PW      WM34882  11.856   3.227   9.791 -0.1484  0.0265  0.0967
 9983PW       W34883   3.826   1.538   4.061  0.6178  0.1817 -0.0975
 9983PW      WP34884   3.880   1.536   3.931  0.0475  0.0645 -0.3498
 9983PW      WM34885   3.773   1.600   4.174 -0.2700 -0.3842 -0.1604
 9984PW       W34886   6.153   8.255   0.415 -0.1060 -0.1626 -0.2296
 9984PW      WP34887   6.217   8.161   0.496  0.1221  0.4373  0.3293
 9984PW      WM34888   6.224   8.375   0.403  0.1558 -0.2742  0.1181
 9985PW       W34889   1.516   4.160   9.910 -0.3926 -0.1305 -0.0160
 9985PW      WP34890   1.620   4.116   9.993 -0.5316  0.2441  0.3753
 9985PW      WM34891   1.483   4.219   9.787  0.0386  0.5576  0.1680
 9986PW       W34892   1.035   7.673   2.541  0.0423 -0.2714  0.2363
 9986PW      WP34893   0.933   7.602   2.604 -0.2712  0.0034  0.0596
 9986PW      WM34894   1.103   7.574   2.469 -0.3423 -0.2665 -0.1515
 9987PW       W34895  10.467   2.112  11.937 -0.3094  0.1410  0.1572
 9987PW      WP34896  10.504   2.028  12.043  0.3627 -0.4028 -0.4514
 9987PW      WM34897  10.416   2.210  12.023  0.1384  0.0951  0.4947
 9988PW       W34898   7.592   7.496   3.905 -0.3462  0.3842  0.3856
 9988PW      WP34899   7.557   7.623   3.860  0.2060  0.3521 -0.2192
 9988PW      WM34900   7.728   7.530   3.895 -0.2489 -0.0700 -0.9262
 9989PW       W34901   1.525  10.012   3.465  0.2767  0.1203  0.0802
 9989PW      WP34902   1.565   9.936   3.576  0.1145  0.0887  0.1172
 9989PW      WM34903   1.472   9.976   3.341 -0.0708  0.0841  0.2342
 9990PW       W34904   5.074   2.625   4.663  0.0858 -0.0468  0.0393
 9990PW      WP34905   5.132   2.560   4.773 -0.2293 -0.2544  0.0894
 9990PW      WM34906   4.936   2.624   4.686  0.1433  0.0239  0.4219
 9991PW       W34907   7.837   4.162   1.449  0.4497  0.5492 -0.2197
 9991PW      WP34908   7.918   4.233   1.539  0.0052  0.3451  0.3714
 9991PW      WM34909   7.813   4.299   1.461  0.2059  0.4779  0.2063
 9992PW       W34910   0.390   4.823  11.327 -0.0599  0.2008 -0.3494
 9992PW      WP34911   0.423   4.762  11.206  1.0003  0.1360 -0.0795
 9992PW      WM34912   0.264   4.835  11.387 -0.0497 -0.0892 -0.2644
 9993PW       W34913   9.117   7.445   2.956 -0.4232  0.2415 -0.0439
 9993PW      WP34914   9.047   7.327   2.929  0.4098 -0.2335 -0.2932
 9993PW      WM34915   9.131   7.529   3.067  0.0472  0.2826 -0.1253
 9994PW       W34916   0.185  10.950   2.948  0.1324  0.1285  0.4165
 9994PW      WP34917   0.266  11.016   2.854 -0.2113  0.0855  0.0792
 9994PW      WM34918   0.139  10.836   2.881 -0.0957  0.2645  0.3389
 9995PW       W34919   3.693   5.036   0.401 -0.4819 -0.1682 -0.0860
 9995PW      WP34920   3.769   4.992   0.292 -0.4426 -0.0087 -0.1237
 9995PW      WM34921   3.631   5.154   0.442 -0.0828  0.1459 -0.3486
 9996PW       W34922   3.824   0.458  13.274  0.1657 -0.3210  0.1114
 9996PW      WP34923   3.855   0.493  13.406  0.0298  0.3121 -0.0064
 9996PW      WM34924   3.884   0.334  13.251  0.2111 -0.3038  0.1353
 9997PW       W34925   7.032   5.336   3.679  0.1345  0.1511  0.1525
 9997PW      WP34926   7.099   5.321   3.802 -0.5138 -0.2942  0.4817
 9997PW      WM34927   6.928   5.359   3.769  0.2577  0.5240  0.2090
 9998PW       W34928   0.127   5.795   1.327 -0.2151 -0.1085 -0.0145
 9998PW      WP34929   0.023   5.808   1.420 -0.3346  0.2754 -0.1905
 9998PW      WM34930   0.252   5.734   1.346  0.1790  0.5125 -0.4260
 9999PW       W34931   7.242   3.215   9.070 -0.1569  0.1431 -0.5179
 9999PW      WP34932   7.237   3.076   9.083  0.2185  0.1559 -0.1115
 9999PW      WM34933   7.186   3.208   8.942 -0.0125 -0.2147 -0.5664
10000PW       W34934   9.800   9.191  13.302  0.0642 -0.0931 -0.4868
10000PW      WP34935   9.767   9.326  13.324 -0.3479 -0.2133 -0.3015
10000PW      WM34936   9.881   9.281  13.373 -0.3733 -0.0442 -0.0134
10001PW       W34937   8.167   8.030  12.279  0.0524  0.3002 -0.5634
10001PW      WP34938   8.140   7.974  12.154  0.8218  0.0006 -0.6239
10001PW      WM34939   8.240   8.141  12.324  0.1917  0.1173 -0.3206
10002PW       W34940   9.018   2.090  10.693 -0.1566 -0.4093 -0.2702
10002PW      WP34941   8.986   2.145  10.568  0.3537  0.0428 -0.2224
10002PW      WM34942   9.095   2.188  10.757 -0.7408 -0.1243  0.0302
10003PW       W34943   8.017   0.844   0.785  0.1080  0.2056  0.7416
10003PW      WP34944   8.106   0.952   0.777 -0.1441  0.3958  0.3134
10003PW      WM34945   7.914   0.749   0.788 -0.3031  0.5513 -0.2850
10004PW       W34946   6.337   9.054  11.658  0.5796  0.0174 -0.1184
10004PW      WP34947   6.365   9.187  11.693  0.1055  0.0870  0.0259
10004PW      WM34948   6.247   9.075  11.553  0.4334  0.0232  0.0065
10005PW       W34949   3.989  11.123   0.802 -0.1249 -0.0351 -0.2909
10005PW      WP34950   3.995  11.054   0.679  0.1432  0.0089 -0.3045
10005PW      WM34951   3.878  11.038   0.815 -0.0003 -0.1962 -0.2523
10006PW       W34952   4.868   0.114   2.667  0.0299  0.0251 -0.0271
10006PW      WP34953   4.915   0.002   2.597 -0.0248  0.3078 -0.5426
10006PW      WM34954   4.819   0.192   2.562 -0.0427 -0.0730 -0.0673
10007PW       W34955  10.791  11.286  12.638 -0.0423  0.5292  0.1031
10007PW      WP34956  10.661  11.328  12.605 -0.1480  0.3703  0.3084
10007PW      WM34957  10.800  11.259  12.775  0.1393 -0.0944 -0.0180
10008PW       W34958  11.322  10.462   8.765 -0.3873  0.6148 -0.2976
10008PW      WP34959  11.332  10.588   8.824  0.1173  0.5295 -0.1697
10008PW      WM34960  11.237  10.476   8.874 -0.0436  0.1140  0.0600
10009PW       W34961  12.072   1.337   2.795  0.0680  0.0659  0.0106
10009PW      WP34962  11.960   1.333   2.879  0.1518 -0.4720  0.1166
10009PW      WM34963  12.126   1.322   2.924  0.3342 -0.2053 -0.1263
10010PW       W34964   9.556   3.780   5.045  0.5093  0.4313 -0.7302
10010PW      WP34965   9.497   3.880   5.123 -0.4357 -0.3868 -0.2724
10010PW      WM34966   9.553   3.712   4.922  0.0360  0.1895 -0.5975
10011PW       W34967  11.779   4.003   1.954 -0.6922  0.1495  0.5465
10011PW      WP34968  11.842   4.076   2.055 -0.0435  0.3961  0.0057
10011PW      WM34969  11.690   3.928   2.032 -0.6179 -0.3334  0.1913
10012PW       W34970  11.878   1.579   2.401 -0.0872  0.1529 -0.2954
10012PW      WP34971  11.951   1.694   2.367  0.0734  0.0670 -0.2504
10012PW      WM34972  11.789   1.595   2.507 -0.4869 -0.4266 -0.5242
10013PW       W34973   6.740   8.882   0.548  0.2626 -0.2494  0.0210
10013PW      WP34974   6.637   8.961   0.601  0.4416 -0.2857  0.4395
10013PW      WM34975   6.829   8.958   0.625  0.0018 -0.0968  0.1794
10014PW       W34976   5.543   8.566  11.359  0.3072 -0.2006 -0.2479
10014PW      WP34977   5.675   8.610  11.345  0.2764  0.0771  0.2418
10014PW      WM34978   5.434   8.622  11.291  0.1623 -0.2434 -0.0536
10015PW       W34979   1.910   6.071   4.617  0.0099 -0.1117 -0.3831
10015PW      WP34980   2.050   6.077   4.609  0.0272 -0.3703 -0.3357
10015PW      WM34981   1.852   6.164   4.530 -0.2849  0.2786  0.1988
10016PW       W34982   5.322   3.130  10.808  0.2133  0.0197  0.0214
10016PW      WP34983   5.202   3.177  10.864  0.2028  0.2004 -0.1480
10016PW      WM34984   5.341   3.027  10.716  0.0725  0.0602 -0.0549
10017PW       W34985   6.442   7.560   8.098 -0.3151 -0.1950  0.1065
10017PW      WP34986   6.510   7.661   8.166  0.2931 -0.3102 -0.2895
10017PW      WM34987   6.497   7.485   8.203  0.9136  0.4656  0.0283
10018PW       W34988   9.444  10.915   9.767  0.3317 -0.3356  0.1432
10018PW      WP34989   9.492  10.852   9.651  0.2047 -0.0537 -0.0681
10018PW      WM34990   9.510  10.887   9.887  0.3569 -0.2864  0.1408
10019PW       W34991   5.650   7.126   2.673  0.2385  0.0356 -0.0142
10019PW      WP34992   5.780   7.125   2.620  0.2331  0.0233 -0.0273
10019PW      WM34993   5.558   7.022   2.688  0.2662  0.0179  0.0351
10020PW       W34994   7.763   6.071  12.475  0.0415  0.4811  0.2928
10020PW      WP34995   7.678   6.097  12.582 -0.0770  0.6558  0.1594
10020PW      WM34996   7.632   6.038  12.437  0.3351  0.0897 -0.4981
10021PW       W34997   1.527   8.917  12.835  0.6570 -0.3213  0.0668
10021PW      WP34998   1.624   8.893  12.933  0.2847 -0.1613  0.4934
10021PW      WM34999   1.605   8.906  12.720 -0.5421 -0.2153 -0.8564
10022PW       W35000   9.410   9.217  10.229  0.1227 -0.1667  0.3954
10022PW      WP35001   9.398   9.121  10.128  0.0165 -0.1002  0.3436
10022PW      WM35002   9.364   9.347  10.254 -0.1133 -0.2582  0.4534
10023PW       W35003   7.527   7.255   4.385 -0.2768 -0.0044 -0.1030
10023PW      WP35004   7.442   7.193   4.477 -0.4761  0.3730 -0.0229
10023PW      WM35005   7.652   7.284   4.440 -0.3479  0.0414  0.0368
10024PW       W35006   5.663   7.177  12.454  0.1682 -0.1272  0.2630
10024PW      WP35007   5.781   7.239  12.414 -0.0305  0.1444  0.0781
10024PW      WM35008   5.592   7.094  12.367 -0.5433  0.3708  0.3216
10025PW       W35009   4.994   8.991   1.594 -0.0315 -0.1736  0.4513
10025PW      WP35010   4.857   9.003   1.572  0.0811  0.2698 -0.1324
10025PW      WM35011   4.875   8.918   1.589 -0.2323  0.1433 -0.6247
10026PW       W35012   4.969  10.433  11.133 -0.0651 -0.1067 -0.0513
10026PW      WP35013   4.836  10.396  11.112 -0.1923  0.2993  0.0060
10026PW      WM35014   5.079  10.364  11.185  0.1803 -0.1148 -0.5593
10027PW       W35015   8.858   6.240  11.179  0.2099  0.2129  0.2707
10027PW      WP35016   8.921   6.274  11.059 -0.1775 -0.4803 -0.1643
10027PW      WM35017   8.990   6.244  11.225  0.2028 -0.2445  0.3495
10028PW       W35018   8.886   7.098   9.914  0.3547  0.1550 -0.1446
10028PW      WP35019   8.998   7.019   9.885  0.2114 -0.1323  0.0491
10028PW      WM35020   8.954   7.194   9.839 -0.0003 -0.0629 -0.7814
10029PW       W35021   8.312   9.686   4.069  0.0137 -0.0667  0.1237
10029PW      WP35022   8.449   9.712   4.072  0.0388 -0.1503 -0.1609
10029PW      WM35023   8.273   9.729   3.942  0.1027  0.0555  0.1375
10030PW       W35024  12.034   3.717   2.670  0.2391  0.0620 -0.1444
10030PW      WP35025  12.073   3.818   2.759  0.1779 -0.0731  0.0377
10030PW      WM35026  12.145   3.636   2.643  0.1281 -0.1719  0.0842
10031PW       W35027   5.545  10.571   4.562 -0.0920 -0.0062 -0.3177
10031PW      WP35028   5.626  10.471   4.618 -0.3334 -0.0292  0.0094
10031PW      WM35029   5.445  10.622   4.645  0.0322  0.3874 -0.4024
10032PW       W35030   3.555   3.461   2.592  0.3410 -0.0588  0.0103
10032PW      WP35031   3.446   3.516   2.660  0.4762  0.0548  0.1382
10032PW      WM35032   3.694   3.471   2.603  0.3669  0.3737 -0.4870
10033PW       W35033   4.021   3.421   1.086  0.0623 -0.1181 -0.2908
10033PW      WP35034   4.021   3.285   1.053  0.1127 -0.1495 -0.1662
10033PW      WM35035   3.952   3.493   0.987  0.1384  0.1539 -0.1506
10034PW       W35036   9.677   7.420   3.131  0.5507  0.2037 -0.0112
10034PW      WP35037   9.675   7.524   3.037  0.2860  0.0725 -0.1548
10034PW      WM35038   9.631   7.433   3.262 -0.1515 -0.5789 -0.1334
10035PW       W35039   1.395   3.683  12.054 -0.0542  0.0779 -0.0067
10035PW      WP35040   1.456   3.568  12.001 -0.8430 -0.3841  0.0081
10035PW      WM35041   1.401   3.730  12.186  0.0796  0.0050  0.0141
10036PW       W35042   0.432  12.074   0.899  0.0369  0.5325 -0.2421
10036PW      WP35043   0.334  12.063   0.799  0.0535 -0.3153 -0.2008
10036PW      WM35044   0.525  12.002   0.823 -0.2611  0.0014 -0.1264
10037PW       W35045   2.883   7.790   9.800 -0.0568 -0.2745 -0.1670
10037PW      WP35046   2.881   7.897   9.891 -0.0937 -0.3614 -0.0649
10037PW      WM35047   2.778   7.697   9.803 -0.4051  0.1012 -0.0506
10038PW       W35048   1.659  10.312   4.878  0.3129  0.3016  0.0656
10038PW      WP35049   1.758  10.348   4.971  0.2064  0.3959  0.1441
10038PW      WM35050   1.683  10.185   4.933  1.0688  0.0855 -0.6536
10039PW       W35051   6.936   5.822  12.598  0.3446  0.0964  0.1158
10039PW      WP35052   7.070   5.835  12.637  0.5293  0.1037 -0.4794
10039PW      WM35053   6.905   5.762  12.476  0.3382 -0.2285  0.2703
10040PW       W35054   3.765   3.361  11.038  0.0707  0.2758 -0.1346
10040PW      WP35055   3.745   3.243  10.965  0.1219  0.2330 -0.0793
10040PW      WM35056   3.795   3.437  11.152  0.1870 -0.4951  0.3883
10041PW       W35057   0.669   2.087   8.430 -0.1267 -0.2820 -0.0407
10041PW      WP35058   0.762   2.192   8.435 -0.3550 -0.0590 -0.2560
10041PW      WM35059   0.721   2.011   8.535 -0.1410 -0.0496  0.1393
10042PW       W35060   5.978  10.554   2.267  0.9225  0.1019  0.1408
10042PW      WP35061   6.052  10.437   2.251 -0.0822 -0.5426 -0.2903
10042PW      WM35062   5.902  10.671   2.285  0.0491 -0.3210 -0.4592
10043PW       W35063  10.174   2.951  12.855 -0.4951 -0.0636  0.1159
10043PW      WP35064  10.241   2.963  12.978 -0.1509  0.3187 -0.0983
10043PW      WM35065  10.047   3.004  12.875 -0.4128  0.2466 -0.1487
10044PW       W35066   1.949   6.014  12.058 -0.2799  0.1028 -0.2303
10044PW      WP35067   1.957   5.947  12.180  0.0022  0.0348 -0.2832
10044PW      WM35068   2.085   6.046  12.054 -0.3091  0.2390 -0.1827
10045PW       W35069   0.791   7.105   2.364 -0.0741 -0.1796 -0.3128
10045PW      WP35070   0.725   7.048   2.474 -0.1642  0.4671 -0.0091
10045PW      WM35071   0.720   7.223   2.338 -0.3780 -0.2947 -0.0374
10046PW       W35072  11.964   8.308   2.974 -0.2682 -0.0648  0.0867
10046PW      WP35073  11.826   8.293   2.992 -0.2692 -0.4000 -0.1617
10046PW      WM35074  11.956   8.414   3.066 -0.1883  0.0033  0.0153
10047PW       W35075   6.368   3.588  11.604 -0.3753 -0.3276 -0.0853
10047PW      WP35076   6.416   3.600  11.735 -0.4521  0.2921 -0.0950
10047PW      WM35077   6.422   3.465  11.566  0.0245 -0.0217 -0.5650
10048PW       W35078   4.525   5.804   1.436  0.0001  0.2979 -0.5071
10048PW      WP35079   4.404   5.862   1.475 -0.0916 -0.0148 -0.3029
10048PW      WM35080   4.545   5.687   1.511 -0.0877  0.2150 -0.6108
10049PW       W35081   8.492   8.730   8.838  0.3304 -0.1189  0.2967
10049PW      WP35082   8.509   8.706   8.701  0.1398 -0.1541  0.2786
10049PW      WM35083   8.628   8.755   8.858  0.3280  0.1076  0.0548
10050PW       W35084   6.320   8.190   4.180 -0.4328 -0.2057 -0.0952
10050PW      WP35085   6.347   8.099   4.283 -0.1660  0.0509  0.0713
10050PW      WM35086   6.391   8.307   4.151 -0.3913 -0.2055  0.0054
10051PW       W35087   6.421   1.276   0.735  0.0169 -0.0981 -0.0054
10051PW      WP35088   6.548   1.326   0.765 -0.0935  0.0038  0.3192
10051PW      WM35089   6.533   1.198   0.766  0.0299 -0.0566  0.0537
10052PW       W35090   8.151   9.322   4.357  0.0896  0.4276 -0.1684
10052PW      WP35091   8.184   9.252   4.474  0.1579  0.3848 -0.2132
10052PW      WM35092   8.199   9.334   4.226 -0.3172  0.0530 -0.3668
10053PW       W35093   0.246   1.753   4.141 -0.2804 -0.2592  0.0718
10053PW      WP35094   0.380   1.714   4.134 -0.1526  0.1608  0.0073
10053PW      WM35095   0.223   1.781   4.276  0.0071 -0.0422  0.0799
10054PW       W35096   0.454   8.011  10.449 -0.3062 -0.0898 -0.0883
10054PW      WP35097   0.442   7.897  10.529  0.2791 -0.0127  0.1304
10054PW      WM35098   0.331   7.949  10.423 -0.3840  0.0099  0.0304
10055PW       W35099  11.061   8.716  11.247 -0.2713 -0.1226  0.1602
10055PW      WP35100  11.142   8.763  11.350 -0.2303 -0.3100  0.2142
10055PW      WM35101  11.133   8.683  11.132 -0.2553  0.3545  0.0218
10056PW       W35102   5.387  10.553  13.077  0.1019  0.0255  0.0524
10056PW      WP35103   5.463  10.667  13.105 -0.0139  0.0032  0.4953
10056PW      WM35104   5.269  10.624  13.101  0.0067  0.1564 -0.6886
10057PW       W35105   7.847   2.414   3.238 -0.0048  0.1476  0.8339
10057PW      WP35106   7.809   2.279   3.238  0.4611 -0.0034  0.2287
10057PW      WM35107   7.950   2.492   3.186  0.0437 -0.2361  0.3213
10058PW       W35108   7.329   8.086  12.466 -0.1457  0.1133 -0.2577
10058PW      WP35109   7.331   8.108  12.604  0.1628  0.5194 -0.3175
10058PW      WM35110   7.409   8.087  12.352  0.3212  0.1274  0.0590
10059PW       W35111   7.562   8.000   3.853 -0.2198 -0.1199  0.4271
10059PW      WP35112   7.433   8.041   3.816  0.0314  0.3349  0.0062
10059PW      WM35113   7.565   7.937   3.978 -0.2876  0.0057  0.4931
10060PW       W35114  10.452   5.516   9.695 -0.3758 -0.0638 -0.0712
10060PW      WP35115  10.562   5.600   9.676 -0.0424 -0.3810  0.3505
10060PW      WM35116  10.319   5.479   9.718 -0.3844  0.2751  0.5147
10061PW       W35117   2.246   2.578  12.383  0.4622  0.0288 -0.2119
10061PW      WP35118   2.318   2.551  12.500 -0.1060  0.1043  0.1769
10061PW      WM35119   2.224   2.708  12.431  0.2308  0.0373 -0.3314
10062PW       W35120   4.449   3.245   0.848 -0.0339  0.2509  0.2803
10062PW      WP35121   4.440   3.351   0.757  0.2324  0.0727  0.0364
10062PW      WM35122   4.420   3.108   0.849  0.4194  0.1412 -0.0465
10063PW       W35123   6.704   3.756  10.409 -0.0733 -0.4116 -0.0503
10063PW      WP35124   6.619   3.856  10.457  0.1101 -0.1832 -0.1921
10063PW      WM35125   6.657   3.776  10.279 -0.3114  0.0113  0.0923
10064PW       W35126   4.342  10.249   1.282  0.0158  0.0513 -0.1929
10064PW      WP35127   4.326  10.123   1.224  0.1645  0.0728 -0.2816
10064PW      WM35128   4.326  10.201   1.152  0.1508 -0.9508  0.1197
10065PW       W35129   9.622   8.434   8.109  0.3292  0.4014 -0.2789
10065PW      WP35130   9.532   8.482   8.205  0.4916  0.1109  0.0296
10065PW      WM35131   9.712   8.373   8.198  0.0622 -0.1379 -0.3582
10066PW       W35132   8.021  10.890   5.182  0.2324 -0.1323 -0.1433
10066PW      WP35133   8.143  10.955   5.159  0.3053  0.0109  0.5217
10066PW      WM35134   7.896  10.894   5.121  0.1965 -0.1921 -0.0752
10067PW       W35135   2.378  11.466  11.262  0.1002 -0.0161  0.0853
10067PW      WP35136   2.411  11.463  11.126 -0.2389 -0.2871  0.0000
10067PW      WM35137   2.324  11.470  11.391 -0.0750  0.3225  0.0073
10068PW       W35138   2.175   8.533   1.182  0.0089  0.3446 -0.1950
10068PW      WP35139   2.209   8.625   1.282 -0.1372  0.1184  0.0696
10068PW      WM35140   2.184   8.406   1.125 -0.4635  0.2327 -0.0382
10069PW       W35141   0.333   3.070   8.140  0.0960 -0.2078  0.4976
10069PW      WP35142   0.467   3.113   8.140 -0.0462  0.2707  0.2812
10069PW      WM35143   0.378   2.939   8.156  0.4396 -0.1467  0.1199
10070PW       W35144   0.269   7.221  13.212 -0.0913 -0.0206 -0.1207
10070PW      WP35145   0.283   7.359  13.193 -0.0964  0.0098  0.0887
10070PW      WM35146   0.196   7.120  13.148 -0.1768 -0.0759  0.0607
10071PW       W35147   2.293   6.835  12.426  0.5527  0.6145 -0.2830
10071PW      WP35148   2.181   6.913  12.392  0.0738  0.0641 -0.0601
10071PW      WM35149   2.384   6.850  12.321  0.5748  0.4794 -0.2839
10072PW       W35150   6.105   1.273   4.248  0.1906  0.3539 -0.9144
10072PW      WP35151   5.984   1.202   4.244  0.2394  0.1546 -0.0142
10072PW      WM35152   6.163   1.383   4.311 -0.2298  0.1104 -0.0181
10073PW       W35153   4.232   1.172  10.325  0.3295  0.2229 -0.2102
10073PW      WP35154   4.242   1.234  10.200  0.0444  0.1683 -0.2653
10073PW      WM35155   4.252   1.227  10.452  0.1867 -0.1831 -0.0032
10074PW       W35156   7.522   9.331   4.379 -0.4560 -0.1467 -0.1972
10074PW      WP35157   7.542   9.227   4.470  0.5768  0.3371  0.2053
10074PW      WM35158   7.444   9.216   4.394  0.1120 -0.5353 -0.0654
10075PW       W35159   5.905  10.647  13.233  0.0735  0.0099  0.2782
10075PW      WP35160   5.780  10.662  13.294 -0.2821 -0.1710 -0.3594
10075PW      WM35161   5.966  10.703  13.120  0.3236  0.0380  0.4227
10076PW       W35162  11.645  11.876   2.875  0.5884 -0.3355 -0.1577
10076PW      WP35163  11.624  11.738   2.875 -0.3010 -0.2283  0.1713
10076PW      WM35164  11.524  11.871   2.804  0.3990  0.3630  0.0817
10077PW       W35165   3.737   0.287   4.951 -0.0044 -0.2627 -0.3991
10077PW      WP35166   3.651   0.176   4.949  0.0038 -0.2674 -0.5652
10077PW      WM35167   3.700   0.374   4.848  0.3175  0.1162 -0.2032
10078PW       W35168  10.399   2.277   0.518  0.3213 -0.3640  0.2490
10078PW      WP35169  10.403   2.417   0.510  0.3441 -0.3426  0.5687
10078PW      WM35170  10.324   2.164   0.551  0.0003 -0.2504 -0.0584
10079PW       W35171   2.922  11.400   1.622  0.1384 -0.0405  0.1914
10079PW      WP35172   2.995  11.509   1.671  0.4628 -0.1575 -0.0114
10079PW      WM35173   2.867  11.444   1.501 -0.2443 -0.2911  0.2656
10080PW       W35174   0.788   5.382   1.772  0.5244  0.4973  0.2979
10080PW      WP35175   0.825   5.273   1.851 -0.1569  0.0456  0.0345
10080PW      WM35176   0.916   5.331   1.795  0.3654 -0.2461 -0.2795
10081PW       W35177   5.567  11.250   9.508  0.3146  0.0574 -0.1432
10081PW      WP35178   5.590  11.299   9.637 -1.0720  0.4245  0.0526
10081PW      WM35179   5.470  11.149   9.499  0.2966  0.0597  0.0188
10082PW       W35180   3.098   8.148   1.386  0.0258 -0.0627 -0.0451
10082PW      WP35181   3.034   8.085   1.494 -0.4471  0.1818 -0.1663
10082PW      WM35182   3.028   8.093   1.278 -0.1440  0.3356 -0.1470
10083PW       W35183   8.754   8.418  13.402 -0.1710 -0.0107  0.4587
10083PW      WP35184   8.867   8.407  13.320 -0.4665 -0.4138  0.0881
10083PW      WM35185   8.644   8.410  13.317  0.1468  0.2119  0.0023
10084PW       W35186   6.483   5.662   3.077 -0.3206  0.2402  0.2023
10084PW      WP35187   6.520   5.650   3.212 -0.5266 -0.3276  0.2246
10084PW      WM35188   6.350   5.677   3.034 -0.2353  0.4511  0.0034
10085PW       W35189  10.164   6.167   3.898 -0.6435  0.8007 -0.1578
10085PW      WP35190  10.140   6.226   4.022 -0.1392  0.0403  0.3441
10085PW      WM35191  10.070   6.164   3.795 -0.5418  0.0434 -0.2553
10086PW       W35192   9.747   5.421   0.583  0.0215  0.0210  0.2403
10086PW      WP35193   9.774   5.524   0.675  0.0506  0.3563 -0.1287
10086PW      WM35194   9.841   5.488   0.504 -0.7362  0.2182 -0.5687
10087PW       W35195   9.804  10.974   4.519  0.1667 -0.0196  0.1821
10087PW      WP35196   9.842  10.989   4.653  0.2809 -0.2707  0.1808
10087PW      WM35197   9.906  10.920   4.440 -0.0023  0.1780 -0.1808
10088PW       W35198   0.427   9.426  10.176 -0.4148  0.0857  0.2156
10088PW      WP35199   0.496   9.382  10.290  0.1382  0.1106 -0.0921
10088PW      WM35200   0.494   9.351  10.078  0.1872  0.5079  0.2752
10089PW       W35201   2.036  11.415   9.505  0.0733  0.1578  0.1810
10089PW      WP35202   2.070  11.396   9.370  0.0471  0.4004  0.1384
10089PW      WM35203   2.160  11.395   9.566  0.2432  0.6098  0.0111
10090PW       W35204   2.945   9.797   4.589 -0.1428 -0.0512  0.3958
10090PW      WP35205   3.028   9.772   4.479 -0.3588  0.4922  0.0898
10090PW      WM35206   2.878   9.917   4.619 -0.1655  0.1037 -0.2080
10091PW       W35207   1.679   5.607  10.570 -0.1261  0.0081  0.0977
10091PW      WP35208   1.541   5.629  10.580 -0.1206  0.2341 -0.2606
10091PW      WM35209   1.618   5.627  10.446  0.3795 -0.5341 -0.2687
10092PW       W35210   5.312   7.006   0.111  0.1441 -0.3334  0.1676
10092PW      WP35211   5.350   6.939  -0.005 -0.5632  0.2174 -0.4379
10092PW      WM35212   5.209   7.099   0.091  0.4243 -0.0220  0.1324
10093PW       W35213   8.255   4.566   3.872  0.1459 -0.1105  0.1733
10093PW      WP35214   8.345   4.591   3.976 -0.1063 -0.3279  0.4574
10093PW      WM35215   8.249   4.663   3.772  0.1856 -0.4453 -0.1653
10094PW       W35216  12.091  10.414  10.790  0.0605  0.3525 -0.4363
10094PW      WP35217  12.114  10.532  10.862  0.4531 -0.0086  0.0686
10094PW      WM35218  12.171  10.317  10.728 -0.5357 -0.5001  0.0107
10095PW       W35219   8.399   2.553   4.130 -0.4215  0.1319  0.2176
10095PW      WP35220   8.286   2.473   4.109 -0.1204 -0.3731  0.4334
10095PW      WM35221   8.352   2.582   4.001 -1.0103 -0.7028  0.2044
10096PW       W35222   2.990   7.210  11.304  0.1269 -0.3936 -0.1509
10096PW      WP35223   3.123   7.252  11.319 -0.1595  0.5353  0.0680
10096PW      WM35224   2.934   7.112  11.220  0.1168 -0.5334  0.0160
10097PW       W35225  11.464   4.486  11.851  0.3171 -0.1155  0.0094
10097PW      WP35226  11.490   4.408  11.964 -0.6627 -0.4035  0.0873
10097PW      WM35227  11.584   4.492  11.780  0.3016  0.1374  0.0001
10098PW       W35228   4.190   9.382  12.205  0.3813  0.0061 -0.0916
10098PW      WP35229   4.248   9.365  12.078  0.5125  0.0865 -0.0432
10098PW      WM35230   4.219   9.249  12.238  0.6781  0.0157 -0.2947
10099PW       W35231  10.230   5.412   3.885 -0.1651 -0.2974 -0.1287
10099PW      WP35232  10.208   5.353   4.010 -0.3311 -0.1083 -0.0658
10099PW      WM35233  10.247   5.279   3.926  0.1005 -0.1922  0.1264
10100PW       W35234   9.666  12.059   9.372 -0.1879  0.2304 -0.2226
10100PW      WP35235   9.723  11.964   9.287  0.5476  0.3443  0.1093
10100PW      WM35236   9.597  12.031   9.491  0.4718  0.0039  0.1292
10101PW       W35237  11.619   8.618   1.747 -0.2124 -0.3560 -0.2891
10101PW      WP35238  11.546   8.582   1.633  0.1401 -0.0770 -0.6203
10101PW      WM35239  11.562   8.729   1.685 -0.2841 -0.1324  0.1575
10102PW       W35240   3.888   1.951   1.350  0.0118  0.2889  0.0256
10102PW      WP35241   3.867   1.891   1.475  0.1421  0.2614  0.0354
10102PW      WM35242   3.836   2.059   1.278 -0.2337  0.3570  0.2937
10103PW       W35243   7.360   5.971   1.903 -0.1034 -0.1094  0.0849
10103PW      WP35244   7.452   6.076   1.911 -0.2767  0.0644 -0.1323
10103PW      WM35245   7.481   5.902   1.915 -0.2111 -0.3145  0.0104
10104PW       W35246   3.189   2.779   4.838  0.4198 -0.1245 -0.1542
10104PW      WP35247   3.242   2.819   4.715  0.4872  0.7871  0.1340
10104PW      WM35248   3.310   2.848   4.831  0.4832 -0.1688  0.3188
10105PW       W35249   1.814   6.316   1.264  0.1634 -0.1493  0.0415
10105PW      WP35250   1.741   6.383   1.363  0.2431 -0.1981  0.1337
10105PW      WM35251   1.843   6.207   1.181 -0.0165 -0.2695  0.1348
10106PW       W35252   1.073   0.554   1.765  0.0399  0.3199 -0.2390
10106PW      WP35253   1.134   0.590   1.886 -0.2024 -0.1130  0.0227
10106PW      WM35254   1.010   0.476   1.863  0.0419  0.2204 -0.3164
10107PW       W35255   1.645   3.486  10.283 -0.1645  0.1594  0.0705
10107PW      WP35256   1.568   3.585  10.345  0.0785  0.3895  0.0158
10107PW      WM35257   1.568   3.394  10.211  0.0744 -0.1876  0.2427
10108PW       W35258  10.737  11.858   1.794  0.2189 -0.2250  0.0088
10108PW      WP35259  10.781  11.754   1.710  0.5370 -0.0051 -0.1078
10108PW      WM35260  10.607  11.910   1.788  0.2545 -0.0757  0.4015
10109PW       W35261   5.972   2.876  10.418  0.2357  0.4826  0.0594
10109PW      WP35262   5.843   2.877  10.473  0.0925  0.3199 -0.2603
10109PW      WM35263   6.110   2.894  10.403  0.2423  0.1291 -0.4116
10110PW       W35264  10.957   1.202   3.384 -0.2675  0.4460 -0.3672
10110PW      WP35265  11.062   1.235   3.470 -0.1466 -0.1381 -0.2712
10110PW      WM35266  10.840   1.255   3.441  0.0377  0.1874  0.5925
10111PW       W35267  10.365   9.882   0.160 -0.1383  0.0367  0.1798
10111PW      WP35268  10.352  10.016   0.124 -0.5573 -0.0210  0.0894
10111PW      WM35269  10.365   9.779   0.256 -0.1741 -0.2304 -0.1003
10112PW       W35270  10.441   3.982   0.832  0.3146  0.2472  0.2896
10112PW      WP35271  10.518   3.904   0.746 -0.1439  0.0557  0.0318
10112PW      WM35272  10.334   4.069   0.806  0.2062  0.0297 -0.0133
10113PW       W35273   9.380   2.828   2.448 -0.3859 -0.5645  0.5483
10113PW      WP35274   9.245   2.866   2.442 -0.3039 -0.2991 -0.2337
10113PW      WM35275   9.470   2.926   2.493 -0.1845 -0.3346 -0.2688
10114PW       W35276   3.823   2.693   2.109  0.1317  0.0061 -0.1180
10114PW      WP35277   3.870   2.786   2.016  0.1635  0.2679  0.1496
10114PW      WM35278   3.756   2.714   2.231  0.3363  0.0951 -0.0185
10115PW       W35279   2.374  11.794  12.122 -0.1930 -0.2984 -0.6180
10115PW      WP35280   2.484  11.872  12.086 -0.4676  0.3621 -0.1243
10115PW      WM35281   2.509  11.769  12.150 -0.1913  0.0029 -0.3226
10116PW       W35282   1.604   4.567   2.494 -0.2308 -0.2802 -0.3120
10116PW      WP35283   1.544   4.440   2.499  0.2705 -0.5213 -0.1157
10116PW      WM35284   1.566   4.633   2.611 -0.2981 -0.3338 -0.3028
10117PW       W35285   0.673   2.006  10.347  0.2674 -0.2567 -0.1222
10117PW      WP35286   0.624   1.875  10.335 -0.5758 -0.0040  0.1854
10117PW      WM35287   0.617   2.020  10.220  0.0201  0.1256  0.0193
10118PW       W35288   9.562  10.211   8.802  0.5892 -0.0995 -0.0079
10118PW      WP35289   9.483  10.195   8.916 -0.0387  0.6551 -0.2892
10118PW      WM35290   9.687  10.273   8.788  0.4140  0.3554  0.3238
10119PW       W35291   4.559   1.966   8.433 -0.6265 -0.4624  0.1420
10119PW      WP35292   4.679   2.037   8.431 -0.4767 -0.7088 -0.0867
10119PW      WM35293   4.478   1.995   8.543 -0.4056 -0.2188  0.2427
10120PW       W35294   1.811   2.056   9.400  0.6205  0.2224 -0.1699
10120PW      WP35295   1.745   1.939   9.439  0.2879  0.4691  0.0359
10120PW      WM35296   1.862   2.094   9.275  0.3327  0.3386 -0.2551
10121PW       W35297   7.738   9.305  12.714  0.3466 -0.4206 -0.1807
10121PW      WP35298   7.694   9.174  12.689 -0.2690 -0.2948  0.1423
10121PW      WM35299   7.697   9.436  12.688 -0.5269 -0.6697 -0.2391
10122PW       W35300  11.320   1.330  10.325  0.0788  0.0101  0.4204
10122PW      WP35301  11.276   1.453  10.275 -0.8680 -0.3935  0.1436
10122PW      WM35302  11.439   1.295  10.260 -0.0951 -0.1176  0.1589
10123PW       W35303   9.894   9.043   9.901  0.1428  0.0394  0.7119
10123PW      WP35304  10.033   9.030   9.913  0.1280 -0.2103  0.6424
10123PW      WM35305   9.916   9.178   9.874  0.1026 -0.0545  0.1676
10124PW       W35306   4.291  12.048   9.712  0.0220  0.0811 -0.1559
10124PW      WP35307   4.265  11.936   9.792  0.2034 -0.0810 -0.3171
10124PW      WM35308   4.414  12.080   9.654  0.0083 -0.0758 -0.2756
10125PW       W35309  12.112   0.526   2.097  0.0180  0.0797  0.4616
10125PW      WP35310  12.125   0.483   1.964  0.2655  0.2066  0.4421
10125PW      WM35311  11.998   0.607   2.111 -0.2456 -0.2169  0.1276
10126PW       W35312   6.170   3.180   5.286 -0.0362  0.0102  0.1836
10126PW      WP35313   6.238   3.278   5.358 -0.0375  0.5416 -0.4867
10126PW      WM35314   6.147   3.064   5.361 -0.4664 -0.1666 -0.1975
10127PW       W35315   5.487   6.668   5.257 -0.2391  0.2916  0.3065
10127PW      WP35316   5.537   6.656   5.387 -0.3353  0.1258  0.3288
10127PW      WM35317   5.561   6.705   5.144 -0.4181  0.2030  0.1576
10128PW       W35318   8.611   4.132  10.438 -0.3977  0.0303  0.0522
10128PW      WP35319   8.646   4.102  10.570 -0.2654 -0.1767 -0.0274
10128PW      WM35320   8.535   4.016  10.419  0.2454 -0.3447 -0.4657
10129PW       W35321   3.494   8.443   1.167  0.3463 -0.4938  0.3749
10129PW      WP35322   3.498   8.305   1.141  0.2409 -0.4682  0.2212
10129PW      WM35323   3.633   8.448   1.147  0.3243 -0.3897  0.2440
10130PW       W35324   6.303  10.556  12.654 -0.1113  0.1526 -0.0013
10130PW      WP35325   6.229  10.674  12.639 -0.1100  0.0896 -0.6829
10130PW      WM35326   6.415  10.476  12.680 -0.1305 -0.1762 -0.7930
10131PW       W35327   1.353   3.177  12.034  0.0059  0.0480 -0.1358
10131PW      WP35328   1.340   3.039  12.016  0.4023  0.0225 -0.2841
10131PW      WM35329   1.290   3.127  12.148  0.0628  0.1198 -0.0725
10132PW       W35330   2.256  11.549  10.780  0.2897 -0.0459 -0.0319
10132PW      WP35331   2.213  11.452  10.688  0.0925  0.1886 -0.1943
10132PW      WM35332   2.236  11.544  10.918  0.3572  0.1284 -0.0150
10133PW       W35333   2.064  10.840   4.631 -0.4953  0.0997  0.2012
10133PW      WP35334   1.989  10.816   4.515 -0.0827  0.0180 -0.0562
10133PW      WM35335   2.184  10.806   4.694 -0.3583 -0.1823 -0.1937
10134PW       W35336  11.212   3.865   3.716  0.1799  0.5239  0.1532
10134PW      WP35337  11.196   3.762   3.623 -0.3314  0.5928  0.1503
10134PW      WM35338  11.074   3.852   3.696  0.3015 -0.1851 -0.4263
10135PW       W35339   9.544   0.959   5.450 -0.5407  0.2144  0.3320
10135PW      WP35340   9.455   1.017   5.360 -0.5933  0.0842  0.2990
10135PW      WM35341   9.624   1.025   5.356 -0.1800 -0.3340  0.2255
10136PW       W35342  11.839   6.673  10.635 -0.2273  0.0586  0.1275
10136PW      WP35343  11.800   6.546  10.679 -0.0927 -0.1006 -0.1953
10136PW      WM35344  11.757   6.689  10.522  0.0048  0.2641 -0.0150
10137PW       W35345   3.626  10.082  12.222 -0.1105  0.0369  0.1713
10137PW      WP35346   3.560   9.974  12.280 -0.5183  0.1862  0.0013
10137PW      WM35347   3.554  10.190  12.170 -0.3539 -0.1810  0.0476
10138PW       W35348   8.180   8.354  13.184  0.0372 -0.0643 -0.1926
10138PW      WP35349   8.267   8.404  13.281  0.0930 -0.4620 -0.0263
10138PW      WM35350   8.195   8.223  13.137 -0.1499 -0.0338 -0.3464
10139PW       W35351  11.460   9.134   0.755 -0.1710  0.4477 -0.3204
10139PW      WP35352  11.422   9.078   0.632 -0.2641 -0.0581 -0.0765
10139PW      WM35353  11.321   9.128   0.742 -0.1778  0.1769 -0.1748
10140PW       W35354   3.912   8.028   2.031 -0.1293 -0.0960  0.1862
10140PW      WP35355   3.784   7.997   1.985 -0.0220  0.0033 -0.2007
10140PW      WM35356   3.872   8.113   2.135  0.1631  0.2843 -0.0005
10141PW       W35357   6.487   3.044   3.841  0.1337 -0.2235  0.1173
10141PW      WP35358   6.478   3.142   3.740 -0.0875 -0.1432  0.2116
10141PW      WM35359   6.411   2.928   3.859  0.6366 -0.5589  0.1715
10142PW       W35360   7.267   2.445  12.346 -0.3726  0.4629  0.1284
10142PW      WP35361   7.168   2.349  12.321 -0.1365  0.2506 -0.0186
10142PW      WM35362   7.341   2.373  12.251 -0.4021  0.0005  0.4402
10143PW       W35363   2.640  10.118   2.455  0.4158  0.1149 -0.1431
10143PW      WP35364   2.511  10.133   2.507  0.5961  0.4363  0.2355
10143PW      WM35365   2.563  10.083   2.344 -0.0175  0.3367  0.0740
10144PW       W35366   3.874   6.903  10.423  0.3146 -0.6602 -0.5950
10144PW      WP35367   3.961   6.981  10.346  0.0031  0.2417 -0.1192
10144PW      WM35368   3.970   6.898  10.525 -0.1640 -0.1184 -0.0750
10145PW       W35369   1.311   7.559   4.395  0.0568 -0.0970  0.2244
10145PW      WP35370   1.202   7.508   4.466  0.4833 -0.5466  0.5933
10145PW      WM35371   1.334   7.686   4.448 -0.4854  0.1867 -0.1643
10146PW       W35372   6.934   4.489   9.171 -0.1743  0.3308  0.1026
10146PW      WP35373   6.988   4.446   9.293 -0.0544  0.1209 -0.0212
10146PW      WM35374   6.807   4.457   9.221 -0.0745 -0.3861 -0.0518
10147PW       W35375   8.601   5.206  11.033 -0.1122  0.2149  0.2070
10147PW      WP35376   8.730   5.254  11.006 -0.2501  0.2489 -0.4825
10147PW      WM35377   8.586   5.107  11.130  0.4317 -0.1626 -0.0623
10148PW       W35378   0.358   6.661   2.942  0.0850  0.4091  0.6770
10148PW      WP35379   0.400   6.619   3.069 -0.0798 -0.2088  0.5478
10148PW      WM35380   0.227   6.656   2.893  0.1201 -0.5193  0.5817
10149PW       W35381  11.720   2.231  11.387 -0.0439 -0.0474 -0.2081
10149PW      WP35382  11.808   2.145  11.454  0.0302 -0.4608 -0.7983
10149PW      WM35383  11.793   2.239  11.268 -0.4595  0.6204 -0.4484
10150PW       W35384   6.997   2.578   2.936  0.5130  0.0517 -0.5892
10150PW      WP35385   7.071   2.462   2.961  0.0010 -0.1894 -0.0952
10150PW      WM35386   6.913   2.684   2.970  0.2497 -0.3831  0.2685
10151PW       W35387   4.860   7.314   1.892  0.6634  0.6183 -0.0980
10151PW      WP35388   4.766   7.372   1.977  0.5369  0.2180  0.0451
10151PW      WM35389   4.925   7.288   1.771 -0.0378 -0.2924 -0.3380
10152PW       W35390   7.338  10.425  13.302  0.1684 -0.3815 -0.1168
10152PW      WP35391   7.296  10.352  13.414 -0.3758  0.0135 -0.0441
10152PW      WM35392   7.468  10.464  13.336  0.2161 -0.2021 -0.4835
10153PW       W35393  11.483   8.506  12.889  0.0538 -0.1371  0.2736
10153PW      WP35394  11.605   8.476  12.827  0.0190  0.2250  0.0185
10153PW      WM35395  11.563   8.417  12.963  0.4621  0.3379  0.4333
10154PW       W35396   4.830   9.631   0.709 -0.1223  0.1658  0.0775
10154PW      WP35397   4.906   9.604   0.824  0.1764 -0.3108 -0.2157
10154PW      WM35398   4.818   9.627   0.570  0.3490 -0.2433  0.0361
10155PW       W35399   4.948   2.486  10.785  0.3240  0.2700 -0.0341
10155PW      WP35400   5.021   2.605  10.795  0.4764  0.1483  0.5447
10155PW      WM35401   4.866   2.579  10.850  0.2695  0.2098 -0.0149
10156PW       W35402   4.092   6.896   2.722  0.0250  0.1505 -0.3200
10156PW      WP35403   3.996   6.800   2.758  0.0283  0.3946  0.4150
10156PW      WM35404   4.144   7.021   2.756  0.1019  0.0113  0.1035
10157PW       W35405   7.644   6.614  11.203 -0.0267 -0.3328  0.4135
10157PW      WP35406   7.670   6.478  11.184  0.0138 -0.2106 -0.7486
10157PW      WM35407   7.758   6.669  11.264 -0.0344  0.4447 -0.1911
10158PW       W35408   2.320   2.574   1.352  0.2522 -0.5137 -0.1522
10158PW      WP35409   2.323   2.585   1.212  0.2329 -0.2944 -0.1377
10158PW      WM35410   2.340   2.620   1.483  0.0713 -0.0511 -0.2784
10159PW       W35411   6.429   5.536   4.264  0.3030  0.4284  0.0933
10159PW      WP35412   6.403   5.420   4.189 -0.5106  0.1867  0.6790
10159PW      WM35413   6.528   5.554   4.361  0.2257  0.1648  0.2260
10160PW       W35414   2.935   1.446   1.748  0.0239 -0.2377  0.4484
10160PW      WP35415   2.995   1.325   1.783 -0.1115 -0.3417  0.3279
10160PW      WM35416   3.005   1.344   1.814 -0.2264 -0.8395 -0.1556
10161PW       W35417  10.363   9.358   3.667  0.3145  0.5877 -0.4591
10161PW      WP35418  10.408   9.294   3.552  0.5611 -0.0863 -0.0192
10161PW      WM35419  10.352   9.490   3.712 -0.0287  0.3295  0.3046
10162PW       W35420   2.751   3.269   1.180 -0.4890 -0.1412 -0.3638
10162PW      WP35421   2.871   3.208   1.141 -0.2632  0.1692 -0.1777
10162PW      WM35422   2.653   3.196   1.248 -0.4653  0.1401 -0.0128
10163PW       W35423   9.051   3.905  10.668 -0.2148 -0.0989  0.1655
10163PW      WP35424   8.934   3.829  10.678 -0.1245 -0.2487  0.0977
10163PW      WM35425   9.062   3.935  10.805  0.1629  0.3432  0.0526
10164PW       W35426   2.424   3.735   4.465  0.0448 -0.1450 -0.3067
10164PW      WP35427   2.413   3.597   4.445  0.1242 -0.1852 -0.0907
10164PW      WM35428   2.515   3.784   4.560 -0.2642 -0.0626 -0.0474
10165PW       W35429   1.809  12.002   4.749 -0.4845 -0.1162 -0.1904
10165PW      WP35430   1.901  11.958   4.845 -0.2593  0.1107 -0.2956
10165PW      WM35431   1.687  11.954   4.698 -0.4729 -0.2069 -0.1323
10166PW       W35432   0.870  10.547   2.389  0.3110  0.5549 -0.0382
10166PW      WP35433   1.006  10.514   2.392  0.1661 -0.1051  0.0941
10166PW      WM35434   0.872  10.647   2.291 -0.2278  0.1268 -0.5237
10167PW       W35435   1.887   9.085  10.869  0.3307 -0.1917 -0.2089
10167PW      WP35436   1.837   8.961  10.828 -0.0865  0.0284 -0.3906
10167PW      WM35437   1.992   9.033  10.946  0.1775  0.0416  0.1697
10168PW       W35438   0.189   5.104  10.973 -0.0874 -0.4361 -0.1586
10168PW      WP35439   0.328   5.113  10.989 -0.1574 -0.1701  0.4107
10168PW      WM35440   0.058   5.105  11.022 -0.0552  0.0656 -0.0533
10169PW       W35441   4.966   9.430  13.073  0.3122 -0.5732  0.0590
10169PW      WP35442   4.831   9.426  13.110  0.3716 -0.4027  0.3095
10169PW      WM35443   5.049   9.525  13.013 -0.2225 -0.1347 -0.0207
10170PW       W35444   3.983  11.049   8.634  0.0058 -0.1524 -0.3868
10170PW      WP35445   4.116  11.082   8.605  0.0057 -0.3063 -0.5728
10170PW      WM35446   3.898  11.143   8.694  0.1860 -0.0813 -0.2375
10171PW       W35447  11.897   8.612   2.357 -0.2953  0.3477  0.4764
10171PW      WP35448  11.810   8.510   2.317  0.0929  0.1527  0.0794
10171PW      WM35449  11.945   8.601   2.488 -0.1350  0.2520  0.4120
10172PW       W35450   4.125   8.770   4.197 -0.0688 -0.0430  0.0135
10172PW      WP35451   3.990   8.796   4.224  0.0864  0.5802  0.2753
10172PW      WM35452   4.039   8.744   4.304 -0.0620 -0.3382 -0.0483
10173PW       W35453   2.956   4.696  13.329  0.0412 -0.2863 -0.0371
10173PW      WP35454   2.886   4.598  13.258 -0.3825  0.1690 -0.2827
10173PW      WM35455   2.934   4.795  13.233 -0.2520 -0.1072  0.2017
10174PW       W35456   0.556   3.863   0.825  0.1336  0.2221  0.3201
10174PW      WP35457   0.479   3.964   0.884 -0.2909  0.2577 -0.2563
10174PW      WM35458   0.522   3.870   0.690 -0.0575  0.4899  0.3771
10175PW       W35459   2.308   3.539   1.713  0.1272 -0.7839  0.0238
10175PW      WP35460   2.267   3.479   1.832  0.0911  0.1782  0.5471
10175PW      WM35461   2.431   3.543   1.780 -0.0104  0.1652  0.2925
10176PW       W35462   9.635  10.535   1.470  0.0589  0.5240 -0.3869
10176PW      WP35463   9.519  10.612   1.485  0.1231  0.5128  0.3327
10176PW      WM35464   9.746  10.513   1.389  0.2210 -0.1695 -0.0222
10177PW       W35465  10.184  11.820   0.557 -0.5826 -0.4986  0.3552
10177PW      WP35466  10.109  11.747   0.463 -0.0431 -0.3049 -0.2632
10177PW      WM35467  10.134  11.947   0.586  0.0332 -0.1156 -0.1355
10178PW       W35468   4.973  11.666  12.564 -0.2169 -0.5331  0.0855
10178PW      WP35469   5.081  11.592  12.615  0.0041 -0.3285 -0.0769
10178PW      WM35470   4.897  11.725  12.665  0.0373 -0.1997  0.0899
10179PW       W35471   7.633   4.229   9.838  0.1099  0.0827 -0.4371
10179PW      WP35472   7.750   4.261   9.908  0.0244 -0.0942 -0.2063
10179PW      WM35473   7.709   4.346   9.832 -0.0760  0.2069 -0.4334
10180PW       W35474   0.488   1.931  11.260  0.4382  0.1314 -0.2760
10180PW      WP35475   0.459   1.824  11.174  0.0702  0.0541 -0.0648
10180PW      WM35476   0.554   1.992  11.367 -0.0441  0.1122  0.0480
10181PW       W35477   5.704   7.671   2.402 -0.3511 -0.0834 -0.3987
10181PW      WP35478   5.694   7.802   2.450  0.0643 -0.1472 -0.1042
10181PW      WM35479   5.656   7.731   2.285 -0.1856  0.1362 -0.3568
10182PW       W35480   1.220   3.997   1.565 -0.0963 -0.1087  0.3240
10182PW      WP35481   1.177   3.876   1.509 -0.1097  0.0085  0.0765
10182PW      WM35482   1.359   4.008   1.574  0.0273 -0.6697 -0.4371
10183PW       W35483  12.071  12.029   9.604  0.0891  0.0155  0.3487
10183PW      WP35484  12.120  12.157   9.580  0.0462  0.0254  0.3143
10183PW      WM35485  12.017  12.050   9.477  0.2063 -0.2033  0.2609
10184PW       W35486  10.451   1.502  11.708  0.4013  0.0039  0.1778
10184PW      WP35487  10.329   1.451  11.660  0.2697  0.1711  0.3305
10184PW      WM35488  10.401   1.627  11.746  0.7699  0.3064 -0.2726
10185PW       W35489   2.111   4.417   2.064 -0.1283 -0.0477  0.1506
10185PW      WP35490   2.024   4.324   2.122 -0.4243  0.2789  0.2457
10185PW      WM35491   2.022   4.483   1.978 -0.0250  0.0471  0.1152
10186PW       W35492   0.450   9.155   1.842  0.2128  0.2253  0.1461
10186PW      WP35493   0.505   9.027   1.852  0.0258  0.1010 -0.2841
10186PW      WM35494   0.413   9.289   1.856  0.2488  0.2399  0.1051
10187PW       W35495  11.862   8.829   3.544  0.1407  0.2585 -0.0989
10187PW      WP35496  11.933   8.735   3.469  0.2036 -0.1133  0.4005
10187PW      WM35497  11.880   8.905   3.661 -0.6061 -0.0661  0.2581
10188PW       W35498   6.676   1.817   8.015  0.0379  0.4253  0.2180
10188PW      WP35499   6.559   1.838   8.088  0.0755 -0.3363  0.5390
10188PW      WM35500   6.737   1.838   8.139  0.1055  0.0864  0.2466
10189PW       W35501  12.149   1.170   1.073  0.1037  0.0200  0.5315
10189PW      WP35502  12.114   1.284   1.147  0.1566  0.6511 -0.3417
10189PW      WM35503  12.109   1.076   1.168  0.1345  0.2512  0.7793
10190PW       W35504   6.477   8.626  12.951  0.1960  0.2380 -0.1797
10190PW      WP35505   6.410   8.736  13.007  0.2611  0.1320  0.1205
10190PW      WM35506   6.603   8.686  12.957  0.3492 -0.0810 -0.0770
10191PW       W35507   3.073   9.467   8.382  0.2155 -0.1076  0.1636
10191PW      WP35508   3.014   9.560   8.470  0.0790  0.1827 -0.2219
10191PW      WM35509   3.040   9.342   8.435  0.0749 -0.0890  0.1205
10192PW       W35510   8.644   7.948  13.146 -0.3368  0.2557  0.2284
10192PW      WP35511   8.511   7.904  13.150 -0.2093 -0.1439  0.2619
10192PW      WM35512   8.731   7.838  13.150  0.3121  0.7241 -0.0644
10193PW       W35513   0.993   0.442  10.466 -0.4321  0.0143  0.2002
10193PW      WP35514   0.927   0.497  10.577 -0.1060  0.3642  0.2299
10193PW      WM35515   1.012   0.311  10.421 -0.1716  0.1906 -0.2317
10194PW       W35516  11.742  10.126  10.957 -0.9859 -0.3936  0.2554
10194PW      WP35517  11.842  10.030  10.980 -0.1232  0.3712 -0.0142
10194PW      WM35518  11.677  10.200  10.858 -0.0768  0.2456  0.0785
10195PW       W35519   6.291   3.679  12.041  0.0911 -0.2095 -0.3069
10195PW      WP35520   6.229   3.755  12.141 -0.1301  0.0887 -0.6538
10195PW      WM35521   6.335   3.672  11.908 -0.4953  0.1277 -0.5419
10196PW       W35522   7.510  10.141   1.319 -0.2160 -0.0321  0.5707
10196PW      WP35523   7.474  10.042   1.227  0.2068  0.0068  0.3516
10196PW      WM35524   7.524  10.269   1.373  0.0172  0.1039  0.2093
10197PW       W35525   3.892   5.595   2.676  0.2722  0.0114  0.0807
10197PW      WP35526   3.871   5.608   2.813 -0.0934  0.2204  0.0088
10197PW      WM35527   3.848   5.462   2.678  0.1796  0.0431  0.1966
10198PW       W35528   8.824   3.779   8.633  0.0980  0.0329  0.2745
10198PW      WP35529   8.864   3.884   8.717  0.1217  0.3905 -0.1638
10198PW      WM35530   8.805   3.660   8.704  0.0006 -0.1125  0.0100
10199PW       W35531   4.705   0.808   0.069  0.0734 -0.1258  0.5631
10199PW      WP35532   4.638   0.929   0.050  0.5427  0.0838  0.1390
10199PW      WM35533   4.811   0.751  -0.003 -0.2674  0.1127 -0.1777
10200PW       W35534   0.984  10.737   5.410 -0.0907 -0.3968 -0.4716
10200PW      WP35535   0.944  10.821   5.306  0.1598  0.2726 -0.0586
10200PW      WM35536   0.989  10.656   5.524 -0.3879 -0.2590 -0.3562
10201PW       W35537   7.341   5.169   4.003 -0.0047  0.1296 -0.2058
10201PW      WP35538   7.449   5.162   4.092 -0.3141  0.1649  0.1892
10201PW      WM35539   7.318   5.031   4.004 -0.0337  0.1340 -0.1115
10202PW       W35540   8.009   6.275  11.328 -0.2144 -0.0963  0.0101
10202PW      WP35541   8.147   6.300  11.328 -0.2067 -0.1312 -0.1452
10202PW      WM35542   7.958   6.255  11.456  0.1371  0.0913  0.1874
10203PW       W35543   8.697   5.331   3.378 -0.2209 -0.2811 -0.0439
10203PW      WP35544   8.836   5.342   3.368 -0.2112 -0.1520  0.1953
10203PW      WM35545   8.617   5.216   3.379 -0.2856 -0.2455  0.5609
10204PW       W35546   8.680  11.393   1.532  0.0216 -0.0505 -0.0957
10204PW      WP35547   8.722  11.507   1.603  0.3391 -0.1813 -0.0639
10204PW      WM35548   8.573  11.484   1.530  0.2454  0.2260  0.0735
10205PW       W35549  10.695   9.869   9.431  0.2279 -0.2863 -0.0784
10205PW      WP35550  10.582   9.892   9.352  0.1879 -0.1120  0.0249
10205PW      WM35551  10.730   9.738   9.398  0.1770 -0.2981 -0.0853
10206PW       W35552   2.640   1.339   8.320 -0.1559  0.5443  0.9189
10206PW      WP35553   2.766   1.293   8.359 -0.0093 -0.1149 -0.1376
10206PW      WM35554   2.520   1.411   8.326 -0.4538  0.2550 -0.2729
10207PW       W35555   4.011   3.010   1.744  0.1226  0.0324 -0.4938
10207PW      WP35556   4.025   3.149   1.749  0.3980  0.0006 -0.1682
10207PW      WM35557   3.955   3.038   1.869 -0.1216  0.0239 -0.5986
10208PW       W35558   4.463   6.718   1.042  0.6074  0.1846 -0.3870
10208PW      WP35559   4.357   6.801   1.003  0.5844  0.1275 -0.4470
10208PW      WM35560   4.472   6.735   0.904 -0.2868  0.3847 -0.4477
10209PW       W35561   1.570   0.845   3.611  0.4344 -0.0937 -0.0165
10209PW      WP35562   1.607   0.763   3.504 -0.2673  0.0188 -0.3793
10209PW      WM35563   1.624   0.960   3.669  0.3692 -0.4122  0.7217
10210PW       W35564   1.486  11.089   1.332 -0.4799  0.1645  0.0868
10210PW      WP35565   1.478  11.204   1.253  0.1952 -0.0547 -0.3473
10210PW      WM35566   1.533  10.990   1.420  0.0425  0.5499  0.2697
10211PW       W35567  11.956  10.906   0.181 -0.4250 -0.1924  0.4840
10211PW      WP35568  12.027  10.960   0.289  0.2787  0.1844 -0.1203
10211PW      WM35569  12.061  10.915   0.089 -0.5218 -0.0019  0.3889
10212PW       W35570  10.067   7.623   9.636  0.2111  0.0867  0.1979
10212PW      WP35571  10.150   7.705   9.559 -0.4639  0.3411 -0.3121
10212PW      WM35572  10.020   7.710   9.736 -0.5845 -0.1758  0.0924
10213PW       W35573   4.925   3.631   3.024  0.0345  0.0302 -0.5565
10213PW      WP35574   4.913   3.496   2.991 -0.2109 -0.1366  0.1315
10213PW      WM35575   4.829   3.584   2.934  0.0679 -0.4661 -0.3499
10214PW       W35576   4.065   6.321  11.614 -0.2405 -0.6902 -0.2881
10214PW      WP35577   4.080   6.283  11.747 -0.4743 -0.7429 -0.2750
10214PW      WM35578   4.036   6.392  11.496  0.2180 -0.0376 -0.0405
10215PW       W35579   8.427   3.280   3.126 -0.3560  0.0485  0.0724
10215PW      WP35580   8.289   3.300   3.138 -0.4132 -0.3494  0.1219
10215PW      WM35581   8.475   3.154   3.162 -0.2017  0.0969  0.0399
10216PW       W35582   7.982  10.661   9.275  0.2926 -0.0707 -0.1506
10216PW      WP35583   7.959  10.523   9.258 -0.3221 -0.0292  0.2022
10216PW      WM35584   7.877  10.706   9.195  0.1205  0.1018  0.1646
10217PW       W35585   4.008  10.668   5.636 -0.7892 -0.4910  0.1627
10217PW      WP35586   3.941  10.779   5.583  0.3199 -0.1400 -0.7175
10217PW      WM35587   4.053  10.610   5.517 -0.1748  0.5333 -0.1693
10218PW       W35588   4.145   4.575   1.734 -0.5517  0.1628 -0.5484
10218PW      WP35589   4.203   4.543   1.611 -0.5531  0.1224 -0.5386
10218PW      WM35590   4.231   4.685   1.735 -0.3795  0.0495  0.2096
10219PW       W35591   4.787   6.325   3.298 -0.4392  0.3567  0.0928
10219PW      WP35592   4.711   6.209   3.321  0.2762 -0.0574  0.5459
10219PW      WM35593   4.671   6.369   3.363 -0.3522  0.2557  0.3232
10220PW       W35594   7.717   1.489  12.061  0.0668 -0.2457  0.4469
10220PW      WP35595   7.577   1.483  12.053  0.0807 -0.2156  0.0776
10220PW      WM35596   7.835   1.529  11.997 -0.2624  0.3198  0.1578
10221PW       W35597   2.963   0.991  11.546 -0.0517 -0.0038  0.0692
10221PW      WP35598   2.983   0.853  11.539  0.4037  0.0739 -0.6560
10221PW      WM35599   2.849   1.070  11.534 -0.3678 -0.5155 -0.5451
10222PW       W35600   4.058   1.042   0.612  0.4040  0.0112 -0.1384
10222PW      WP35601   4.079   1.180   0.615  0.2060  0.0397  0.0211
10222PW      WM35602   4.179   0.971   0.619  0.5217  0.1562 -0.5494
10223PW       W35603   3.307   0.605   0.867  0.2571  0.1636 -0.1334
10223PW      WP35604   3.367   0.643   0.988 -0.4633  0.5175  0.1434
10223PW      WM35605   3.217   0.712   0.868 -0.1854 -0.1908 -0.3613
10224PW       W35606   3.246   3.565   4.053 -0.4229 -0.2165 -0.1379
10224PW      WP35607   3.291   3.450   3.988 -0.0075 -0.2641  0.2094
10224PW      WM35608   3.258   3.645   3.938 -0.0113  0.0668  0.0867
10225PW       W35609   6.910   1.201   4.559  0.4053  0.4413 -0.3575
10225PW      WP35610   7.009   1.149   4.475  0.1773 -0.1401 -0.2930
10225PW      WM35611   6.941   1.192   4.696  0.0576 -0.0512 -0.2957
10226PW       W35612   9.957   9.076   9.352  0.3024  0.2033  0.2747
10226PW      WP35613  10.055   9.094   9.253  0.2073 -0.1343  0.1095
10226PW      WM35614  10.068   9.087   9.436  0.4478  0.7340  0.0323
10227PW       W35615   1.951  10.585  12.663  0.3412 -0.1224  0.1951
10227PW      WP35616   1.861  10.599  12.769  0.6895  0.0609  0.4766
10227PW      WM35617   1.953  10.590  12.803  0.0314  0.1314  0.1965
10228PW       W35618   4.444   2.493   5.489 -0.1099  0.3142 -0.3300
10228PW      WP35619   4.462   2.513   5.352  0.1185  0.2381 -0.3121
10228PW      WM35620   4.318   2.529   5.438 -0.4323  0.0003  0.1991
10229PW       W35621   9.202   0.307   3.610 -0.2597 -0.2275 -0.1141
10229PW      WP35622   9.290   0.200   3.595 -0.5986 -0.4836 -0.3473
10229PW      WM35623   9.185   0.178   3.559 -0.0262 -0.2474 -0.1466
10230PW       W35624   7.761   2.391   3.710 -0.2161 -0.1185  0.0236
10230PW      WP35625   7.853   2.463   3.787 -0.0030 -0.4105  0.0499
10230PW      WM35626   7.622   2.376   3.715 -0.2436  0.0536 -0.1321
10231PW       W35627   9.351   1.067  12.730 -0.0567 -0.0320 -0.0546
10231PW      WP35628   9.302   0.945  12.680  0.3636 -0.1480 -0.2069
10231PW      WM35629   9.334   1.064  12.869 -0.1037  0.1328 -0.0561
10232PW       W35630   7.988   3.889   1.909  0.6022 -0.6644 -0.1959
10232PW      WP35631   7.872   3.815   1.881  0.2039 -0.1890  0.1088
10232PW      WM35632   8.115   3.946   1.924  0.1476  0.3884  0.1188
10233PW       W35633   3.397   9.664   2.048  0.5658  0.5215 -0.2002
10233PW      WP35634   3.479   9.721   2.146  0.2401 -0.0602  0.4500
10233PW      WM35635   3.298   9.744   2.106  0.2081 -0.2327  0.2956
10234PW       W35636   7.265   6.570  10.783 -0.0210 -0.0458  0.0355
10234PW      WP35637   7.219   6.671  10.868  0.0562  0.0622 -0.0494
10234PW      WM35638   7.136   6.576  10.729 -0.1022  0.1608  0.2428
10235PW       W35639   4.134   0.761   3.539 -0.2685 -0.1355  0.4735
10235PW      WP35640   4.171   0.699   3.659  0.5036  0.0661  0.3647
10235PW      WM35641   4.014   0.765   3.466 -0.1727 -0.2640  0.3044
10236PW       W35642   5.737   3.674   9.770  0.0283  0.0945 -0.4204
10236PW      WP35643   5.698   3.539   9.773  0.1967  0.0492 -0.1664
10236PW      WM35644   5.854   3.750   9.769 -0.1250  0.3812  0.3900
10237PW       W35645   0.794  10.638   1.914  0.3188  0.2316 -0.3234
10237PW      WP35646   0.857  10.656   2.037  0.2285  0.6038 -0.3255
10237PW      WM35647   0.674  10.676   1.853  0.4154  0.6497 -0.2643
10238PW       W35648   8.095   0.611   0.347 -0.1325  0.3324  0.2650
10238PW      WP35649   8.066   0.478   0.378 -0.0520  0.0932 -0.5591
10238PW      WM35650   8.079   0.632   0.210 -0.4474  0.0316  0.2512
10239PW       W35651   7.299  10.467   3.946  0.2110 -0.1145  0.2440
10239PW      WP35652   7.209  10.422   4.043 -0.0759 -0.5459 -0.1922
10239PW      WM35653   7.383  10.573   3.982  0.2634  0.0243 -0.2455
10240PW       W35654   1.804   7.184  10.505 -0.2493  0.2591  0.3797
10240PW      WP35655   1.802   7.071  10.589 -0.2175 -0.0824 -0.0617
10240PW      WM35656   1.701   7.278  10.490 -0.3082  0.1413 -0.0163
10241PW       W35657   5.520  12.048   1.240 -0.1042  0.0334 -0.4045
10241PW      WP35658   5.482  12.172   1.292 -0.4531 -0.1506 -0.1992
10241PW      WM35659   5.538  11.911   1.260  0.0504  0.1091  0.0288
10242PW       W35660   8.439   2.470   3.303 -0.0282 -0.6001  0.3080
10242PW      WP35661   8.423   2.573   3.397  0.0116  0.0112 -0.3091
10242PW      WM35662   8.544   2.420   3.225 -0.2545 -0.8840  0.1762
10243PW       W35663   1.801   9.434  12.206 -0.1132  0.2694 -0.3053
10243PW      WP35664   1.904   9.475  12.121  0.1853  0.3952  0.1006
10243PW      WM35665   1.719   9.534  12.259 -0.1192  0.0919  0.0362
10244PW       W35666   6.184  11.284   2.580  0.2389  0.1674 -0.1376
10244PW      WP35667   6.170  11.269   2.441 -0.0118 -0.4154 -0.0657
10244PW      WM35668   6.185  11.144   2.583  0.3685  0.1688 -0.0406
10245PW       W35669   1.458   3.973   3.729 -0.3797 -0.4530 -0.3344
10245PW      WP35670   1.580   4.039   3.746 -0.5707 -0.1815  0.0576
10245PW      WM35671   1.390   4.082   3.783 -0.0447 -0.5543  0.3421
10246PW       W35672   1.891   1.976   0.441 -0.2432 -0.1470 -0.0914
10246PW      WP35673   1.934   2.061   0.543 -0.1496 -0.1910 -0.0945
10246PW      WM35674   1.878   1.876   0.538 -0.2231 -0.0475  0.0134
10247PW       W35675   5.655  10.798  10.130 -0.0308 -0.3130  0.3184
10247PW      WP35676   5.740  10.701  10.075 -0.3357 -0.4002 -0.0172
10247PW      WM35677   5.526  10.760  10.168 -0.1736 -0.1017  0.0616
10248PW       W35678  10.366   7.784   0.767 -0.1854  0.0459 -0.1410
10248PW      WP35679  10.357   7.691   0.872  0.1640  0.3809  0.2030
10248PW      WM35680  10.299   7.886   0.836 -0.1593  0.0357 -0.0998
10249PW       W35681  10.402   1.408   0.946  0.2060 -0.0585 -0.0766
10249PW      WP35682  10.394   1.305   1.040 -0.0834 -0.1090 -0.1510
10249PW      WM35683  10.483   1.519   0.968  0.2551 -0.0452 -0.3035
10250PW       W35684   9.181   9.979  11.833  0.0241  0.1240 -0.1685
10250PW      WP35685   9.264   9.866  11.824  0.5039  0.4701 -0.3289
10250PW      WM35686   9.277  10.030  11.745  0.0799 -0.1100 -0.2478
10251PW       W35687   1.860   4.162   4.895  0.0260  0.1748  0.0030
10251PW      WP35688   1.964   4.129   4.983 -0.1862 -0.2053  0.1250
10251PW      WM35689   1.919   4.130   4.772  0.0458  0.1989  0.0064
10252PW       W35690   9.162   6.385   1.755  0.3637  0.5047  0.0938
10252PW      WP35691   9.186   6.366   1.619 -0.4371 -0.2699  0.0174
10252PW      WM35692   9.161   6.502   1.832 -0.3328  0.4848  0.1503
10253PW       W35693   6.631   6.059   2.718  0.3282  0.2236 -0.1398
10253PW      WP35694   6.625   5.986   2.599  0.1653  0.1362 -0.0799
10253PW      WM35695   6.639   6.153   2.615  0.3333 -0.0348 -0.3808
10254PW       W35696  11.345  11.813   3.313  0.2051 -0.2288  0.0700
10254PW      WP35697  11.258  11.704   3.311 -0.5480  0.3247  0.2543
10254PW      WM35698  11.327  11.762   3.442 -0.1622  0.0872  0.1549
10255PW       W35699   9.096   6.965  13.398  0.0464  0.3909  0.2180
10255PW      WP35700   9.047   6.974  13.267  0.3481  0.0367  0.0698
10255PW      WM35701   9.219   7.028  13.421  0.1198  0.2118  0.3286
10256PW       W35702   1.827   3.594  12.686  0.0371  0.3303 -0.2066
10256PW      WP35703   1.941   3.641  12.620  0.3651 -0.2273 -0.0636
10256PW      WM35704   1.790   3.613  12.820 -0.0873  0.1291 -0.2103
10257PW       W35705   9.001   4.031  12.653  0.1493 -0.0095 -0.1684
10257PW      WP35706   9.039   4.109  12.762 -0.5398 -0.4395  0.4270
10257PW      WM35707   9.137   4.065  12.651  0.2317 -0.2790  0.2110
10258PW       W35708   8.582  10.396   3.333 -0.1023 -0.1279 -0.1347
10258PW      WP35709   8.674  10.355   3.430  0.2356  0.3751 -0.2220
10258PW      WM35710   8.463  10.324   3.341 -0.0335 -0.2021  0.4216
10259PW       W35711   5.807   5.377   2.662 -0.2258 -0.1684 -0.2060
10259PW      WP35712   5.781   5.506   2.614  0.1947  0.1682  0.4064
10259PW      WM35713   5.889   5.311   2.570 -0.2245 -0.3162 -0.0990
10260PW       W35714   3.258   3.336  13.284  0.5674 -0.1417  0.3251
10260PW      WP35715   3.275   3.456  13.214 -0.3062 -0.1241  0.0880
10260PW      WM35716   3.370   3.416  13.261  0.5165 -0.2519 -0.4725
10261PW       W35717   6.961  10.772  10.755 -0.0313 -0.5482  0.2616
10261PW      WP35718   7.068  10.861  10.768 -0.5268  0.0864  0.2425
10261PW      WM35719   6.855  10.735  10.671 -0.0025 -0.1776  0.0486
10262PW       W35720  11.188   1.755   2.945  0.0290 -0.0438 -0.1870
10262PW      WP35721  11.174   1.852   2.845 -0.2470  0.2815  0.1519
10262PW      WM35722  11.126   1.790   3.065  0.0986  0.3281 -0.2538
10263PW       W35723   8.154   2.828   3.226 -0.3198  0.0467  0.2101
10263PW      WP35724   8.081   2.709   3.244 -0.4153  0.1720  0.7313
10263PW      WM35725   8.203   2.772   3.344  0.1800  0.2686  0.1185
10264PW       W35726   0.232   7.480   3.625  0.1773  0.1663 -0.1844
10264PW      WP35727   0.372   7.470   3.623  0.1628 -0.2811  0.2115
10264PW      WM35728   0.094   7.500   3.634  0.1913  0.1444  0.1613
10265PW       W35729   5.685   9.912  10.047 -0.2922 -0.0839  0.0347
10265PW      WP35730   5.820   9.886  10.076 -0.2180  0.0666 -0.1629
10265PW      WM35731   5.658   9.978  10.168  0.2639  0.0954  0.0757
10266PW       W35732   9.093  10.589   0.132 -0.3447 -0.4022  0.2763
10266PW      WP35733   9.056  10.692   0.220  0.4805  0.1099  0.0818
10266PW      WM35734   8.968  10.633   0.088  0.0213  0.1440 -0.3055
10267PW       W35735   7.662  10.985  11.054  0.3466  0.2835 -0.4274
10267PW      WP35736   7.756  10.881  11.052  0.2966  0.2143  0.1167
10267PW      WM35737   7.663  11.102  11.131 -0.2823 -0.4003  0.7727
10268PW       W35738   7.156   7.228   4.015  0.3317  0.3595 -0.3626
10268PW      WP35739   7.150   7.322   4.118 -0.0206  0.0143 -0.0482
10268PW      WM35740   7.096   7.102   4.031 -0.1101  0.5914 -0.0744
10269PW       W35741   7.239   8.799   4.321 -0.0266  0.0219  0.2969
10269PW      WP35742   7.340   8.847   4.237  0.0538 -0.4279  0.1216
10269PW      WM35743   7.218   8.907   4.408  0.4472  0.3914 -0.0264
10270PW       W35744   3.781   5.004  10.316 -0.1888  0.0535 -0.1783
10270PW      WP35745   3.684   4.956  10.228 -0.0022 -0.5942 -0.0582
10270PW      WM35746   3.879   4.964  10.224 -0.1113  0.0804 -0.1078
10271PW       W35747   7.309   1.140  12.190 -0.0646 -0.1908  0.1329
10271PW      WP35748   7.322   1.033  12.279  0.2955 -0.2176  0.0570
10271PW      WM35749   7.329   1.233  12.292  0.0750  0.4775 -0.4664
10272PW       W35750   0.243  11.515   9.948  0.0422 -0.7544  0.2214
10272PW      WP35751   0.300  11.637   9.987  0.0526 -0.6562 -0.0832
10272PW      WM35752   0.341  11.485   9.853 -0.1890 -0.0384 -0.2894
10273PW       W35753   0.312   5.647   2.594  0.1244  0.0413 -0.2863
10273PW      WP35754   0.305   5.787   2.596  0.0915  0.0403 -0.3345
10273PW      WM35755   0.439   5.672   2.540  0.4990 -0.2047  0.4090
10274PW       W35756   8.576   1.379   1.210  0.2249 -0.0797 -0.2417
10274PW      WP35757   8.532   1.246   1.215 -0.0353  0.0102  0.0041
10274PW      WM35758   8.662   1.272   1.238  0.1428 -0.1211 -0.1410
10275PW       W35759   4.234   1.145   4.698 -0.3697 -0.3030  0.1945
10275PW      WP35760   4.162   1.167   4.580 -0.0478  0.1682  0.0716
10275PW      WM35761   4.286   1.195   4.818 -0.4756 -0.0671  0.1445
10276PW       W35762   9.454   5.090   5.032 -0.1378  0.4683  0.3301
10276PW      WP35763   9.509   4.962   5.047 -0.1199  0.3977 -0.2267
10276PW      WM35764   9.324   5.127   5.069 -0.2327  0.4914 -0.0068
10277PW       W35765   9.730   4.786   4.826 -0.0135 -0.1116  0.5356
10277PW      WP35766   9.847   4.740   4.764  0.0799  0.5698  0.1597
10277PW      WM35767   9.607   4.852   4.817  0.1804  0.2091 -0.2703
10278PW       W35768  10.533   4.656   8.890 -0.5813 -0.3195  0.0439
10278PW      WP35769  10.495   4.522   8.897 -0.3102 -0.3914  0.1683
10278PW      WM35770  10.633   4.593   8.815 -0.4721 -0.3290  0.1961
10279PW       W35771   3.969   5.053  12.520 -0.2543  0.0556 -0.1971
10279PW      WP35772   3.948   4.942  12.438  0.3749 -0.5200  0.3601
10279PW      WM35773   4.090   5.004  12.569 -0.4215 -0.1044  0.0706
10280PW       W35774   3.749   0.679  11.678 -0.1688 -0.0209 -0.1483
10280PW      WP35775   3.805   0.570  11.746  0.0812  0.0066 -0.3048
10280PW      WM35776   3.817   0.705  11.559 -0.0240  0.1807 -0.0258
10281PW       W35777   1.279  10.820  13.111  0.0757  0.1523  0.0977
10281PW      WP35778   1.302  10.887  12.990 -0.0436  0.1795  0.0894
10281PW      WM35779   1.411  10.811  13.158 -0.1073  0.5418  0.7536
10282PW       W35780   0.333   5.549   9.195  0.1026 -0.2062  0.1243
10282PW      WP35781   0.231   5.491   9.272 -0.3368  0.5441  0.1557
10282PW      WM35782   0.278   5.677   9.199  0.1852 -0.1133 -0.7949
10283PW       W35783   2.129  10.136   2.136 -0.3555  0.4486  0.0974
10283PW      WP35784   2.150  10.054   2.247 -0.5595 -0.1472 -0.2769
10283PW      WM35785   1.999  10.091   2.162 -0.1231 -0.0393  0.5090
10284PW       W35786   7.492   8.449  12.007 -0.0049 -0.6713  0.0015
10284PW      WP35787   7.402   8.484  12.108  0.3704  0.2233  0.0766
10284PW      WM35788   7.386   8.439  11.917 -0.1007 -0.1110  0.0360
10285PW       W35789   8.491   3.068   2.272  0.1694  0.4297  0.4681
10285PW      WP35790   8.534   2.941   2.230 -0.1026  0.3749  0.3423
10285PW      WM35791   8.400   3.168   2.237  0.2145  0.2736 -0.1698
10286PW       W35792  11.029   3.496  12.815 -0.0370 -0.0600 -0.3303
10286PW      WP35793  10.953   3.390  12.763  0.6290 -0.3978 -0.6797
10286PW      WM35794  10.987   3.624  12.776 -0.5521 -0.1435 -0.0979
10287PW       W35795   2.410   3.691   3.712  0.1006  0.0610  0.0034
10287PW      WP35796   2.402   3.640   3.843 -0.4379 -0.0050 -0.0406
10287PW      WM35797   2.337   3.640   3.604 -0.2249 -0.1109  0.2930
10288PW       W35798   9.741   5.286  12.269  0.0491  0.1559 -0.1598
10288PW      WP35799   9.840   5.214  12.337 -0.4274 -0.1102  0.2893
10288PW      WM35800   9.670   5.172  12.229  0.1571  0.1452 -0.3255
10289PW       W35801   8.797   6.580   3.942  0.0398  0.3389 -0.3475
10289PW      WP35802   8.664   6.585   3.897 -0.1417 -0.2180  0.0667
10289PW      WM35803   8.927   6.542   3.905  0.2169  0.4462  0.1340
10290PW       W35804   8.353  10.854  12.025 -0.0965  0.1249 -0.2364
10290PW      WP35805   8.492  10.875  12.026  0.0075 -0.4861  0.0217
10290PW      WM35806   8.296  10.820  11.902  0.5345 -0.0627 -0.4957
10291PW       W35807  11.115   6.928   4.647 -0.1822  0.5343  0.0841
10291PW      WP35808  11.005   6.988   4.585 -0.4629 -0.0837 -0.0514
10291PW      WM35809  11.036   6.825   4.596  0.1677  0.1125  0.3562
10292PW       W35810   1.306   2.250   1.081 -0.1740 -0.0113 -0.2297
10292PW      WP35811   1.335   2.329   0.969  0.2607  0.0553 -0.0791
10292PW      WM35812   1.206   2.289   1.171  0.4676  0.3305  0.3777
10293PW       W35813  11.787   3.808   9.880 -0.3452 -0.4162  0.4358
10293PW      WP35814  11.906   3.752   9.832  0.0640  0.7231 -0.0801
10293PW      WM35815  11.898   3.813   9.965 -0.5081 -0.7568  0.6760
10294PW       W35816   7.363   4.184  11.887 -0.3836  0.1573  0.1103
10294PW      WP35817   7.489   4.178  11.827 -0.2281 -0.6162  0.4544
10294PW      WM35818   7.283   4.261  11.973 -0.1251  0.0898  0.4206
10295PW       W35819   3.687   2.406   7.912  0.1137 -0.0700 -0.1416
10295PW      WP35820   3.668   2.291   7.990 -0.1831 -0.1555 -0.3305
10295PW      WM35821   3.815   2.448   7.951  0.2277 -0.4508 -0.0774
10296PW       W35822   2.143   8.918   1.956 -0.3206 -0.0216  0.1440
10296PW      WP35823   2.012   8.948   1.996 -0.2463  0.1248  0.2850
10296PW      WM35824   2.260   8.940   1.881 -0.6301 -0.0412 -0.3698
10297PW       W35825   2.763   0.069   0.805  0.3044 -0.0408  0.4126
10297PW      WP35826   2.707  -0.046   0.863  0.2187 -0.6330 -0.7120
10297PW      WM35827   2.654  -0.006   0.852 -0.1606  0.0520 -0.4098
10298PW       W35828   9.517   0.573  10.727 -0.0509  0.6224 -0.1399
10298PW      WP35829   9.451   0.517  10.617 -0.0982  0.0175  0.1762
10298PW      WM35830   9.634   0.509  10.770 -0.1973  0.3742 -0.1003
10299PW       W35831  10.598   9.156   1.136 -0.1476 -0.2316  0.0810
10299PW      WP35832  10.644   9.026   1.114 -0.2875 -0.2947  0.1563
10299PW      WM35833  10.533   9.237   1.230  0.3866 -0.1579  0.4105
10300PW       W35834   3.136   4.977   9.493 -0.0120  0.1696  0.0573
10300PW      WP35835   3.157   5.003   9.357  0.0387 -0.5349 -0.0897
10300PW      WM35836   3.125   5.067   9.599  0.4249  0.2004  0.0858
10301PW       W35837  10.070   8.653   3.214  0.0942  0.0206  0.0869
10301PW      WP35838  10.090   8.516   3.232  0.3384 -0.0552 -0.5984
10301PW      WM35839   9.930   8.655   3.218  0.0690 -0.7172  0.3802
10302PW       W35840   0.219   0.804   2.434  0.0034  0.2424 -0.2915
10302PW      WP35841   0.103   0.869   2.388 -0.1052 -0.0087 -0.3784
10302PW      WM35842   0.341   0.814   2.365 -0.0158 -0.2716 -0.4143
10303PW       W35843   0.110  10.386  10.192  0.3679  0.1281  0.0206
10303PW      WP35844   0.144  10.359  10.325 -0.1753  0.0849  0.1616
10303PW      WM35845   0.016  10.378  10.295  0.3139  0.0068 -0.0367
10304PW       W35846   0.688   9.501   4.653  0.2913 -0.0330 -0.1747
10304PW      WP35847   0.821   9.507   4.695  0.0957  0.2182  0.4473
10304PW      WM35848   0.558   9.505   4.705  0.3578 -0.1418  0.0022
10305PW       W35849   3.473   9.125   4.675  0.0495  0.0164 -0.1652
10305PW      WP35850   3.342   9.092   4.711  0.1355  0.0885  0.2288
10305PW      WM35851   3.562   9.049   4.752  0.2082  0.5587  0.2140
10306PW       W35852  11.069   6.293  12.829  0.0555 -0.1407 -0.4336
10306PW      WP35853  11.198   6.260  12.873 -0.1162  0.4026  0.6500
10306PW      WM35854  11.061   6.213  12.943  0.2310 -0.0450 -0.3515
10307PW       W35855   7.844   9.719   4.204 -0.1533 -0.2403 -0.0282
10307PW      WP35856   7.909   9.677   4.321  0.0027  0.2080  0.0575
10307PW      WM35857   7.760   9.831   4.198 -0.2863 -0.3137  0.3406
10308PW       W35858   0.681   0.961   2.362  0.0465  0.2817 -0.1276
10308PW      WP35859   0.559   0.951   2.295 -0.2011 -0.0387  0.3413
10308PW      WM35860   0.780   0.994   2.268  0.1836 -0.1589 -0.1514
10309PW       W35861  12.112   4.080   2.292 -0.3566 -0.2938  0.2393
10309PW      WP35862  12.234   4.144   2.268 -0.5381 -0.1172 -0.2646
10309PW      WM35863  12.024   4.101   2.185 -0.2378  0.0504  0.2024
10310PW       W35864   3.876   7.028  11.917 -0.2743  0.3428 -0.3251
10310PW      WP35865   3.741   7.065  11.925 -0.4642 -0.3385 -0.0590
10310PW      WM35866   3.767   6.941  11.917  0.2804 -0.4253  0.3037
10311PW       W35867   2.386   5.683   9.309 -0.1093 -0.2332  0.4418
10311PW      WP35868   2.390   5.555   9.253  0.0335  0.0199 -0.1697
10311PW      WM35869   2.277   5.747   9.370 -0.0992 -0.0887  0.3117
10312PW       W35870   9.399   2.660   8.918  0.0915 -0.0193  0.4566
10312PW      WP35871   9.523   2.655   8.983  0.4637 -0.3261 -0.2164
10312PW      WM35872   9.277   2.639   8.983 -0.5000  0.1670 -0.4834
10313PW       W35873  11.314  11.622  10.571  0.0578 -0.2085 -0.0703
10313PW      WP35874  11.404  11.704  10.502  0.2259 -0.1485  0.2105
10313PW      WM35875  11.208  11.628  10.480 -0.0821  0.0432  0.1050
10314PW       W35876   3.926   9.102  12.505  0.0811 -0.1971  0.0934
10314PW      WP35877   3.992   9.202  12.578  0.5264 -0.3867 -0.0383
10314PW      WM35878   4.009   8.992  12.484  0.2662 -0.0770  0.1769
10315PW       W35879   8.047   2.507   5.570 -0.5324  0.0054 -0.6233
10315PW      WP35880   8.029   2.632   5.629  0.4930 -0.2276  0.3596
10315PW      WM35881   8.139   2.402   5.564  0.0327  0.4846 -0.7527
10316PW       W35882   3.567   8.347   2.156  0.1254  0.2997  0.1120
10316PW      WP35883   3.593   8.216   2.115  0.2534  0.2806  0.2480
10316PW      WM35884   3.622   8.475   2.165  0.7966  0.0814 -0.4748
10317PW       W35885   1.895   1.159   3.462 -0.1752  0.4076 -0.3134
10317PW      WP35886   1.864   1.103   3.587  0.3024 -0.3570 -0.5064
10317PW      WM35887   2.024   1.189   3.508 -0.2103 -0.1680  0.2202
10318PW       W35888  11.461  10.670   3.360  0.0702  0.2727 -0.0383
10318PW      WP35889  11.490  10.642   3.494 -0.0340 -0.1793 -0.1019
10318PW      WM35890  11.524  10.585   3.267 -0.3016  0.0839 -0.1251
10319PW       W35891   3.026   5.906   8.914  0.0364  0.1470 -0.1558
10319PW      WP35892   3.079   5.783   8.873 -0.2389 -0.1180  0.2457
10319PW      WM35893   3.007   5.952   9.045  0.0041  0.0665 -0.1315
10320PW       W35894   3.144   4.425  12.757 -0.0452 -0.1473  0.3688
10320PW      WP35895   3.107   4.559  12.776  0.0259 -0.0456 -0.1379
10320PW      WM35896   3.270   4.371  12.727 -0.1845 -0.2828  0.0093
10321PW       W35897   9.552   0.008   0.603 -0.0042 -0.1784 -0.1616
10321PW      WP35898   9.513   0.020   0.737  0.1808 -0.3545 -0.0900
10321PW      WM35899   9.647   0.017   0.501 -0.1699 -0.1721 -0.3186
10322PW       W35900   6.937   5.409   0.060 -0.3015 -0.2665 -0.1944
10322PW      WP35901   6.918   5.499  -0.045 -0.3401  0.0067  0.0408
10322PW      WM35902   6.905   5.332   0.173 -0.3173  0.1523  0.0983
10323PW       W35903  11.708   4.300   1.586  0.1394  0.5076  0.5286
10323PW      WP35904  11.842   4.317   1.622  0.5759 -0.0160 -0.6217
10323PW      WM35905  11.750   4.237   1.469 -0.8962  0.1564  0.2953
10324PW       W35906   9.242   9.830   9.112  0.1239 -0.1751 -0.4872
10324PW      WP35907   9.366   9.821   9.048  0.3380 -0.2114 -0.0835
10324PW      WM35908   9.241   9.967   9.083  0.1639  0.0690  0.4708
10325PW       W35909  10.529   0.003  11.102 -0.0697 -0.1004  0.1355
10325PW      WP35910  10.407  -0.066  11.094 -0.1076 -0.0093 -0.1063
10325PW      WM35911  10.571   0.086  11.206  0.1845  0.1495 -0.1567
10326PW       W35912   7.123   0.410  12.754  0.4189  0.0235 -0.1744
10326PW      WP35913   7.201   0.504  12.821 -0.1141 -0.0583  0.6366
10326PW      WM35914   7.044   0.519  12.716 -0.1905 -0.2837  0.1185
10327PW       W35915  10.143   1.901   8.099 -0.1464  0.1376  0.1938
10327PW      WP35916  10.231   1.913   7.991 -0.0781 -0.1809  0.2106
10327PW      WM35917  10.135   1.887   7.960 -0.3220  0.1035  0.2058
10328PW       W35918   3.474   1.812   1.045 -0.0241  0.0922  0.1412
10328PW      WP35919   3.358   1.872   0.997  0.0252  0.2544  0.2198
10328PW      WM35920   3.577   1.717   1.036 -0.1491 -0.0211 -0.1170
10329PW       W35921   1.531  11.250   1.811  0.0075  0.0809 -0.1648
10329PW      WP35922   1.647  11.174   1.794 -0.2267 -0.3030 -0.1033
10329PW      WM35923   1.566  11.381   1.846  0.6376 -0.0578 -0.2324
10330PW       W35924  10.328   3.887  12.252 -0.0850 -0.5416  0.2527
10330PW      WP35925  10.368   3.964  12.362 -0.6494  0.2096 -0.0265
10330PW      WM35926  10.404   3.856  12.139  0.1698  0.5955  0.0520
10331PW       W35927  11.817   2.221   1.276 -0.2205  0.0156  0.1432
10331PW      WP35928  11.770   2.170   1.398 -0.3262  0.2144  0.1887
10331PW      WM35929  11.930   2.300   1.253 -0.1942 -0.1166 -0.2075
10332PW       W35930  10.415   2.654   3.592  0.2542  0.0805  0.2744
10332PW      WP35931  10.375   2.694   3.721 -0.5829  0.1998  0.0113
10332PW      WM35932  10.291   2.598   3.628  0.0705  0.2356 -0.0924
10333PW       W35933   1.925   6.687   0.547  0.2599  0.1905  0.0155
10333PW      WP35934   1.810   6.706   0.625 -0.1800  0.0020 -0.5523
10333PW      WM35935   1.860   6.686   0.423 -0.1857 -0.0983  0.2409
10334PW       W35936  10.934   9.241   4.430  0.0192 -0.0687 -0.2015
10334PW      WP35937  10.871   9.165   4.529 -0.0320  0.0752 -0.1233
10334PW      WM35938  11.061   9.212   4.379  0.0038  0.3607 -0.5064
10335PW       W35939   2.069   4.806  10.138 -0.3171  0.0028 -0.0317
10335PW      WP35940   2.164   4.813  10.240 -0.3270  0.3254 -0.0401
10335PW      WM35941   2.193   4.783  10.198 -0.3373 -0.0552 -0.0111
10336PW       W35942   7.741  11.341   9.918  0.2381 -0.2635  0.0855
10336PW      WP35943   7.838  11.314  10.016  0.0238 -0.3992  0.2656
10336PW      WM35944   7.617  11.366   9.859  0.1806 -0.2722  0.2005
10337PW       W35945   2.209   0.876  11.108 -0.4583 -0.1524  0.5415
10337PW      WP35946   2.191   1.009  11.066  0.5353 -0.2676 -0.4858
10337PW      WM35947   2.147   0.778  11.186 -0.5342 -0.0926  0.5567
10338PW       W35948   5.411   5.928   3.501 -0.1127  0.1591 -0.4982
10338PW      WP35949   5.296   5.934   3.580  0.1262  0.3230 -0.1504
10338PW      WM35950   5.496   5.893   3.395  0.2064 -0.3199 -0.1057
10339PW       W35951   7.344   4.396  10.266 -0.8791 -0.1790  0.0035
10339PW      WP35952   7.303   4.483  10.368  0.2601  0.3374  0.0900
10339PW      WM35953   7.277   4.476  10.173 -0.4089  0.2191 -0.0162
10340PW       W35954   6.011   6.306   1.856 -0.1410 -0.0015  0.3443
10340PW      WP35955   6.111   6.308   1.954 -0.1889  0.4176  0.3921
10340PW      WM35956   5.991   6.321   1.994 -0.3995 -0.0114  0.3104
10341PW       W35957   1.801  11.203  11.940 -0.2089  0.0948  0.3509
10341PW      WP35958   1.732  11.324  11.946  0.0047  0.3016 -0.5553
10341PW      WM35959   1.877  11.173  12.053 -0.1502 -0.1534  0.2485
10342PW       W35960   8.241   1.349  13.289  0.3513  0.0682  0.2059
10342PW      WP35961   8.103   1.339  13.311  0.2268  0.7933 -0.1013
10342PW      WM35962   8.203   1.214  13.277  0.2948  0.0561  0.4693
10343PW       W35963   0.656   5.123  10.965  0.4448  0.0799  0.0046
10343PW      WP35964   0.691   5.075  11.092  0.2815  0.0832  0.0519
10343PW      WM35965   0.659   4.995  11.022 -0.0218  0.0278 -0.0692
10344PW       W35966   3.898   4.662   2.707  0.2087 -0.2518  0.0229
10344PW      WP35967   3.981   4.750   2.637  0.0314 -0.0848  0.0205
10344PW      WM35968   3.791   4.615   2.785  0.0802 -0.1545 -0.0930
10345PW       W35969   9.774   4.339  13.171 -0.0538 -0.2118  0.2203
10345PW      WP35970   9.807   4.203  13.176  0.2471 -0.1929 -0.5723
10345PW      WM35971   9.765   4.251  13.062  0.3499 -0.1433  0.1240
10346PW       W35972   5.992  11.879   1.979 -0.4325  0.2649 -0.1908
10346PW      WP35973   5.972  11.920   2.112  0.0030  0.2168 -0.1030
10346PW      WM35974   6.046  11.964   2.076 -0.0558 -0.1182 -0.0514
10347PW       W35975   1.996   8.857   9.784  0.2537  0.0088 -0.0358
10347PW      WP35976   1.979   8.891   9.919 -0.1331 -0.2571 -0.0115
10347PW      WM35977   2.089   8.955   9.822 -0.0006  0.0771  0.4546
10348PW       W35978   9.200   1.421   2.232  0.0890  0.1087  0.1884
10348PW      WP35979   9.151   1.501   2.336  0.1224  0.1735  0.1546
10348PW      WM35980   9.313   1.450   2.310 -0.0964  0.0111  0.4994
10349PW       W35981   5.259   4.814  12.283  0.3040 -0.2293 -0.1026
10349PW      WP35982   5.316   4.887  12.388  0.2969 -0.3324 -0.0270
10349PW      WM35983   5.331   4.833  12.164  0.2733 -0.0882 -0.1003
10350PW       W35984   1.968  10.593   5.124 -0.2242  0.1972 -0.0990
10350PW      WP35985   2.018  10.502   5.218 -0.2667 -0.0538 -0.3152
10350PW      WM35986   1.911  10.525   5.016  0.1321 -0.0878 -0.1180
10351PW       W35987  10.634   4.887   9.429 -0.2029  0.0701 -0.0045
10351PW      WP35988  10.601   4.766   9.491  0.1858 -0.0698 -0.0578
10351PW      WM35989  10.711   5.002   9.410 -0.1911 -0.0106 -0.5271
10352PW       W35990   3.231   5.606   1.070  0.1491 -0.7317  0.3286
10352PW      WP35991   3.313   5.653   1.173 -0.1422  0.2683  0.1539
10352PW      WM35992   3.336   5.597   0.977  0.0413  0.5194  0.0075
10353PW       W35993   7.533   6.385   2.853 -0.0083  0.0208 -0.2326
10353PW      WP35994   7.399   6.406   2.885  0.0848  0.2550  0.0210
10353PW      WM35995   7.655   6.419   2.913 -0.2353  0.2473  0.1189
10354PW       W35996   5.975   1.832   2.925  0.1860 -0.2206 -0.4182
10354PW      WP35997   6.072   1.868   3.020 -0.2684 -0.0287 -0.0046
10354PW      WM35998   6.031   1.734   2.843  0.0108 -0.3495 -0.3852
10355PW       W35999   0.111   1.358  10.182  0.0609 -0.0244  0.0526
10355PW      WP36000   0.070   1.227  10.209 -0.0112  0.1179  0.7305
10355PW      WM36001   0.101   1.466  10.272 -0.3975 -0.1644  0.1845
10356PW       W36002   7.318   3.411   4.515 -0.1210 -0.0941 -0.1975
10356PW      WP36003   7.235   3.388   4.626  0.1691 -0.1373  0.0180
10356PW      WM36004   7.260   3.313   4.434  0.6370 -0.4037 -0.4116
10357PW       W36005   2.305   6.896   3.474 -0.1033  0.2566  0.0051
10357PW      WP36006   2.244   6.878   3.598  0.2037  0.1169  0.1397
10357PW      WM36007   2.223   6.833   3.380  0.0414 -0.1581  0.1457
10358PW       W36008   8.854   9.059   4.690  0.0029 -0.2270 -0.1942
10358PW      WP36009   8.972   9.124   4.653  0.0143 -0.4670 -0.6122
10358PW      WM36010   8.840   8.924   4.658 -0.1497 -0.2367 -0.0887
10359PW       W36011   1.876   0.353  11.657  0.0540 -0.2121  0.0517
10359PW      WP36012   1.795   0.461  11.620 -0.0259 -0.4732 -0.6220
10359PW      WM36013   1.844   0.434  11.767  0.0160  0.0650 -0.1578
10360PW       W36014   8.741   5.486  10.039 -0.2451 -0.1406 -0.0848
10360PW      WP36015   8.619   5.429  10.000 -0.4029  0.4594 -0.5478
10360PW      WM36016   8.797   5.367   9.991 -0.0072  0.1597 -0.5910
10361PW       W36017   9.437  11.666   1.478 -0.0062 -0.0094 -0.2761
10361PW      WP36018   9.565  11.717   1.449  0.3520 -0.2961  0.6145
10361PW      WM36019   9.421  11.730   1.355 -0.1200  0.8186  0.1373
10362PW       W36020   0.352  11.474   1.513  0.2020  0.1306 -0.4169
10362PW      WP36021   0.415  11.456   1.636 -0.4531 -0.1231 -0.0960
10362PW      WM36022   0.241  11.531   1.578  0.3493 -0.1683  0.1268
10363PW       W36023   6.073   7.531  11.834 -0.0700 -0.0816 -0.4546
10363PW      WP36024   6.148   7.569  11.946 -0.4968  0.0028 -0.1836
10363PW      WM36025   6.033   7.600  11.719 -0.0528  0.3117 -0.2331
10364PW       W36026   8.598   0.358   1.301 -0.3028 -0.0336 -0.2515
10364PW      WP36027   8.692   0.258   1.275 -0.0927  0.0248  0.2355
10364PW      WM36028   8.621   0.398   1.433 -0.1885  0.1673 -0.3295
10365PW       W36029  11.472   9.154  11.581  0.1900  0.0458 -0.3076
10365PW      WP36030  11.416   9.139  11.708 -0.3679  0.3393 -0.5018
10365PW      WM36031  11.573   9.244  11.547 -0.3732  0.6761 -0.4232
10366PW       W36032   0.327   2.278   9.180  0.3501 -0.2888 -0.0798
10366PW      WP36033   0.450   2.341   9.159  0.3645 -0.1987  0.2421
10366PW      WM36034   0.288   2.169   9.102  0.2101 -0.0403 -0.3667
10367PW       W36035  10.161   8.080   1.966 -0.3488  0.0711  0.2383
10367PW      WP36036  10.288   8.035   2.004 -0.2109  0.2744  0.0344
10367PW      WM36037  10.060   8.103   1.872 -0.1656 -0.1696 -0.0235
10368PW       W36038   7.424   7.702   1.815  0.2358 -0.4951 -0.0635
10368PW      WP36039   7.350   7.815   1.777  0.3245 -0.3233  0.2574
10368PW      WM36040   7.451   7.801   1.720 -0.8696  0.2565  0.3079
10369PW       W36041   7.075   4.193   4.595 -0.1153  0.0908  0.3216
10369PW      WP36042   7.193   4.263   4.568 -0.1890 -0.0009 -0.3083
10369PW      WM36043   7.167   4.209   4.699 -0.3731 -0.2728  0.6211
10370PW       W36044   4.405   9.808  11.138  0.1039  0.4458  0.0058
10370PW      WP36045   4.492   9.871  11.049  0.4022  0.2276  0.1348
10370PW      WM36046   4.373   9.705  11.228  0.0467  0.0824 -0.4131
10371PW       W36047   1.226   9.567   5.348  0.1573 -0.2923  0.2622
10371PW      WP36048   1.333   9.656   5.336 -0.0497 -0.0813 -0.0857
10371PW      WM36049   1.223   9.493   5.229 -0.3168 -0.0239  0.0945
10372PW       W36050   8.609   5.583   3.806 -0.2050  0.1089  0.5355
10372PW      WP36051   8.506   5.501   3.854 -0.1125 -0.1092  0.3704
10372PW      WM36052   8.661   5.629   3.684 -0.0426 -0.2114  0.4775
10373PW       W36053   3.018  11.725   2.045  0.0100 -0.2580  0.1799
10373PW      WP36054   3.050  11.697   2.178  0.1470 -0.1341  0.1745
10373PW      WM36055   2.999  11.620   1.954  0.2300 -0.0886 -0.0716
10374PW       W36056   1.769   8.509   9.545 -0.2120 -0.0553  0.0880
10374PW      WP36057   1.667   8.422   9.584 -0.0835 -0.2888 -0.0822
10374PW      WM36058   1.907   8.494   9.560 -0.0921  0.7855  0.0359
10375PW       W36059  10.992   8.713   4.581  0.0983 -0.1510  0.2227
10375PW      WP36060  10.865   8.653   4.583  0.0866 -0.1601 -0.2424
10375PW      WM36061  11.111   8.673   4.519  0.1520  0.0099  0.2195
10376PW       W36062   1.559   8.878   0.467  0.0290  0.1892  0.1310
10376PW      WP36063   1.524   8.864   0.333 -0.2533 -0.0363  0.2237
10376PW      WM36064   1.428   8.830   0.479 -0.1915  0.6929 -0.1018
10377PW       W36065   9.951   5.460   4.414  0.0302  0.1203 -0.0056
10377PW      WP36066   9.907   5.563   4.330  0.2191  0.1819 -0.0298
10377PW      WM36067   9.996   5.327   4.412  0.4532  0.2583 -0.1956
10378PW       W36068   0.166   6.119   3.844  0.2871  0.2894 -0.1382
10378PW      WP36069   0.292   6.069   3.809  0.1203 -0.0464 -0.2702
10378PW      WM36070   0.135   5.984   3.829  0.1282  0.2410  0.5066
10379PW       W36071   5.848   4.703  11.003 -0.3426 -0.0387  0.2147
10379PW      WP36072   5.978   4.742  10.969 -0.4055 -0.1291 -0.1584
10379PW      WM36073   5.835   4.782  11.118  0.1368  0.4188 -0.0218
10380PW       W36074   7.929   9.189   2.468  0.0051 -0.3157  0.0076
10380PW      WP36075   8.066   9.213   2.459 -0.0568  0.1182  0.1164
10380PW      WM36076   7.978   9.060   2.446  0.1721 -0.2015 -0.3274
10381PW       W36077   4.681   5.532   8.466  0.5657  0.3942 -0.2744
10381PW      WP36078   4.571   5.601   8.519  0.5229 -0.0082  0.1924
10381PW      WM36079   4.696   5.393   8.460 -0.3079  0.2556  0.0049
10382PW       W36080   4.385  11.712   8.949 -0.2231 -0.5858 -0.0865
10382PW      WP36081   4.371  11.596   8.872 -0.3057 -0.4965 -0.2080
10382PW      WM36082   4.522  11.684   8.943 -0.0845  0.0608 -0.5963
10383PW       W36083   7.705   6.762   9.184  0.0727  0.0271  0.6925
10383PW      WP36084   7.815   6.718   9.108 -0.2719  0.1034  0.1212
10383PW      WM36085   7.642   6.644   9.225 -0.0005 -0.4782 -0.6142
10384PW       W36086   8.469   4.788  12.041 -0.0651  0.0461  0.0760
10384PW      WP36087   8.560   4.709  11.970 -0.2457 -0.2492  0.1651
10384PW      WM36088   8.346   4.834  11.991 -0.0030  0.2439  0.1014
10385PW       W36089   9.467   4.105   5.442  0.3596  0.0884  0.0210
10385PW      WP36090   9.437   4.205   5.349  0.0238 -0.3547 -0.3705
10385PW      WM36091   9.594   4.126   5.386  0.2596  0.0282 -0.2375
10386PW       W36092   5.732   8.074   1.983 -0.1101 -0.3352  0.1960
10386PW      WP36093   5.776   7.983   1.886 -0.0153 -0.3167  0.2206
10386PW      WM36094   5.603   8.077   2.037 -0.4151  0.1526 -0.4918
10387PW       W36095   0.955   4.886   0.445 -0.0424 -0.0970  0.1298
10387PW      WP36096   1.028   4.998   0.403  0.1265  0.0357  0.7266
10387PW      WM36097   1.059   4.800   0.481  0.0021  0.0798  0.4472
10388PW       W36098   6.502  12.201  11.123 -0.1601  0.2677  0.2405
10388PW      WP36099   6.547  12.104  11.213  0.2572 -0.3398 -0.5623
10388PW      WM36100   6.569  12.093  11.064 -0.2824  0.3463 -0.0506
10389PW       W36101   8.393   5.825   2.403  0.0911  0.4569  0.0313
10389PW      WP36102   8.311   5.723   2.353 -0.4542  0.7092  0.3673
10389PW      WM36103   8.465   5.942   2.429  0.4109  0.2486  0.1101
10390PW       W36104   6.065   8.730  10.721 -0.1708 -0.3608  0.1668
10390PW      WP36105   6.080   8.729  10.861 -0.3205  0.1248  0.1941
10390PW      WM36106   6.095   8.704  10.587  0.1347 -0.1058  0.1800
10391PW       W36107   9.310   5.700   2.284  0.0533 -0.0863  0.3509
10391PW      WP36108   9.189   5.693   2.354 -0.2910 -0.3641 -0.2331
10391PW      WM36109   9.362   5.688   2.154 -0.4192  0.3626  0.1004
10392PW       W36110  10.380   9.573  10.222 -0.1225 -0.1178  0.0279
10392PW      WP36111  10.390   9.683  10.136 -0.4010 -0.0721  0.0503
10392PW      WM36112  10.284   9.479  10.261 -0.2778 -0.1085 -0.3163
10393PW       W36113   7.872   4.782   3.609 -0.0459 -0.3247  0.0968
10393PW      WP36114   7.864   4.694   3.500  0.6797  0.2913 -0.5140
10393PW      WM36115   7.832   4.657   3.659 -0.1366 -0.7488 -0.9086
10394PW       W36116   2.010   2.936   1.898  0.2456 -0.2480  0.1355
10394PW      WP36117   1.910   2.846   1.936  0.2953  0.0217  1.0123
10394PW      WM36118   2.076   2.920   1.776 -0.0242 -0.2534 -0.0148
10395PW       W36119  10.393  11.521   1.989 -0.1282 -0.0204  0.2830
10395PW      WP36120  10.400  11.633   1.905  0.1702 -0.2185  0.0336
10395PW      WM36121  10.300  11.534   2.093 -0.6125  0.1555 -0.1515
10396PW       W36122  10.894   8.786  10.221  0.0114 -0.3545  0.1583
10396PW      WP36123  10.865   8.818  10.354  0.2174 -0.1709  0.1605
10396PW      WM36124  10.823   8.766  10.101  0.0281 -0.1549  0.1135
10397PW       W36125   1.217   3.404   2.276  0.0742 -0.0151 -0.1787
10397PW      WP36126   1.118   3.501   2.255 -0.0897 -0.0633  0.2977
10397PW      WM36127   1.136   3.350   2.377 -0.6067  0.2709 -0.5428
10398PW       W36128   1.688  12.080  10.112 -0.0417  0.4645  0.1531
10398PW      WP36129   1.565  12.054  10.050  0.1022  0.2150 -0.0391
10398PW      WM36130   1.800  12.051  10.191 -0.2836 -0.4589  0.2155
10399PW       W36131  10.506   4.153  12.635  0.4319 -0.2456 -0.4433
10399PW      WP36132  10.473   4.042  12.714 -0.1410  0.0981 -0.1657
10399PW      WM36133  10.527   4.116  12.502  0.0252 -0.3618 -0.4801
10400PW       W36134   3.920   5.977   3.913 -0.1032 -0.1050  0.0277
10400PW      WP36135   4.040   5.996   3.983 -0.2751 -0.1277  0.3349
10400PW      WM36136   3.835   6.075   3.966 -0.1701 -0.0676 -0.1450
10401PW       W36137   3.054   2.471   3.020  0.4529  0.4476  0.0915
10401PW      WP36138   3.160   2.388   3.058  0.6582  0.6149 -0.1045
10401PW      WM36139   3.035   2.362   2.934  0.0711  0.6551 -0.1032
10402PW       W36140   4.755  10.281   1.584 -0.4167  0.4047 -0.5962
10402PW      WP36141   4.821  10.389   1.523  0.1086  0.2917 -0.2479
10402PW      WM36142   4.752  10.391   1.670 -0.1688 -0.1517  0.1763
10403PW       W36143   8.200   4.877  10.133 -0.0243  0.1026 -0.1244
10403PW      WP36144   8.337   4.851  10.119 -0.0607 -0.5462  0.4449
10403PW      WM36145   8.088   4.796  10.160 -0.5053  0.6663 -0.3266
10404PW       W36146  10.006   7.579   2.716  0.0191 -0.0002 -0.1285
10404PW      WP36147  10.132   7.541   2.668 -0.0168 -0.6165  0.2030
10404PW      WM36148  10.023   7.630   2.845 -0.2043  0.1127 -0.1419
10405PW       W36149   0.635   3.866   4.334 -0.1468  0.0657 -0.2269
10405PW      WP36150   0.688   3.982   4.391  0.2485  0.0356 -0.5150
10405PW      WM36151   0.651   3.905   4.200 -0.2662 -0.0088 -0.2633
10406PW       W36152  10.686   0.642   9.101 -0.4460 -0.0482 -0.1329
10406PW      WP36153  10.578   0.606   9.182 -0.0200 -0.3913  0.3126
10406PW      WM36154  10.816   0.690   9.076 -0.3773 -0.2043 -0.0836
10407PW       W36155  11.437   6.628  10.920  0.0392  0.1951 -0.0947
10407PW      WP36156  11.347   6.698  11.001 -0.2439  0.0522 -0.2766
10407PW      WM36157  11.420   6.520  10.832 -0.2978  0.0187  0.1742
10408PW       W36158  10.557   6.376  11.345 -0.3525 -0.2222  0.2007
10408PW      WP36159  10.463   6.409  11.247 -0.2749  0.2488  0.2748
10408PW      WM36160  10.565   6.296  11.460  0.6331 -0.1177  0.2448
10409PW       W36161  11.680  10.601   4.395 -0.3179 -0.0405 -0.5027
10409PW      WP36162  11.665  10.554   4.526  0.6061 -0.3335 -0.4705
10409PW      WM36163  11.676  10.740   4.380  0.1714  0.1367  0.5668
10410PW       W36164   9.327   4.995   5.515 -0.1000  0.2341  0.2151
10410PW      WP36165   9.258   5.111   5.477 -0.2714  0.1298  0.1998
10410PW      WM36166   9.221   4.939   5.442  0.1198  0.1350 -0.0344
10411PW       W36167   0.576  12.049   1.362 -0.2100  0.4311  0.0975
10411PW      WP36168   0.492  12.089   1.466 -0.0949 -0.1542  0.4354
10411PW      WM36169   0.656  11.936   1.338  0.2382  0.8840 -0.8394
10412PW       W36170   2.536   7.773   2.668  0.0830 -0.1864  0.2206
10412PW      WP36171   2.650   7.767   2.588  0.0681  0.1921  0.1624
10412PW      WM36172   2.486   7.766   2.799 -0.2987 -0.1745  0.0808
10413PW       W36173   0.089   4.932   1.563  0.3355 -0.5967 -0.4460
10413PW      WP36174  -0.017   4.868   1.498 -0.5389  0.3012 -0.0482
10413PW      WM36175   0.172   4.894   1.669  0.0936 -0.1554 -0.0804
10414PW       W36176   3.744   0.314   0.723  0.3500  0.0093 -0.0724
10414PW      WP36177   3.805   0.263   0.838 -0.3168  0.2786  0.4376
10414PW      WM36178   3.621   0.345   0.783  0.3199 -0.1861 -0.0286
10415PW       W36179   9.954   3.416   3.800  0.2952 -0.4038 -0.0103
10415PW      WP36180  10.038   3.479   3.708  0.1977 -0.1812  0.0507
10415PW      WM36181   9.955   3.279   3.830  0.1298 -0.2875  0.5991
10416PW       W36182   4.998   0.945  12.631 -0.2865  0.3151  0.1533
10416PW      WP36183   4.920   1.051  12.583 -0.5321  0.2771  0.4525
10416PW      WM36184   4.971   0.850  12.532  0.3175  0.2712  0.0088
10417PW       W36185   1.475   3.665   9.743 -0.0009  0.4925  0.7275
10417PW      WP36186   1.443   3.744   9.631  0.0483 -0.1452  0.2335
10417PW      WM36187   1.586   3.721   9.679 -0.4941  0.3552 -0.3733
10418PW       W36188   8.933   7.003  10.432  0.1638 -0.0201  0.1144
10418PW      WP36189   8.860   6.884  10.435  0.1229 -0.0013 -0.0739
10418PW      WM36190   8.807   7.024  10.375  0.1580 -0.0958  0.0992
10419PW       W36191   3.482  10.388   0.685 -0.1781 -0.0772 -0.0487
10419PW      WP36192   3.374  10.327   0.620 -0.3739  0.3136 -0.1067
10419PW      WM36193   3.521  10.444   0.807 -0.3302  0.3832 -0.2005
10420PW       W36194   1.095   7.694  12.369  0.4054  0.3685  0.0032
10420PW      WP36195   1.169   7.580  12.335 -0.1638  0.0245 -0.1573
10420PW      WM36196   1.178   7.749  12.467  0.2334  0.5032  0.0764
10421PW       W36197   7.355   0.019   3.346 -0.1522  0.1701  0.0040
10421PW      WP36198   7.319   0.059   3.216 -0.1525 -0.3479 -0.1643
10421PW      WM36199   7.338   0.157   3.364  0.2870  0.1853  0.4045
10422PW       W36200   7.704   9.842   9.036  0.1876  0.0955 -0.3986
10422PW      WP36201   7.670   9.929   9.140  0.0289 -0.3913 -0.0246
10422PW      WM36202   7.780   9.725   9.048 -0.4773 -0.3293 -0.0661
10423PW       W36203   8.953   7.883   2.729  0.0276  0.3764 -0.0014
10423PW      WP36204   8.979   8.021   2.734  0.3056  0.3213  0.8250
10423PW      WM36205   8.952   7.804   2.614 -0.4416 -0.0178  0.2553
10424PW       W36206   2.720   6.171   2.084  0.0034 -0.0206  0.0881
10424PW      WP36207   2.624   6.265   2.045 -0.2645 -0.0973  0.5170
10424PW      WM36208   2.650   6.222   1.975 -0.0926 -0.6212 -0.1552
10425PW       W36209   4.734   5.582  11.770 -0.4017 -0.4744  0.1332
10425PW      WP36210   4.657   5.692  11.729  0.2067 -0.1505 -0.2162
10425PW      WM36211   4.822   5.603  11.664 -0.2193  0.0158  0.3636
10426PW       W36212   6.031   0.250  12.718  0.4769  0.0491  0.1216
10426PW      WP36213   6.135   0.210  12.632  0.0904  0.2376 -0.4660
10426PW      WM36214   5.903   0.194  12.726  0.5146 -0.0355  0.1427
10427PW       W36215   8.735   6.318  12.575 -0.1832 -0.1676 -0.1112
10427PW      WP36216   8.771   6.322  12.439 -0.0463  0.4131 -0.0735
10427PW      WM36217   8.787   6.208  12.644 -0.1439 -0.0662  0.0226
10428PW       W36218   8.420   8.995  13.254 -0.5245  0.3575  0.0374
10428PW      WP36219   8.465   9.127  13.234  0.1136  0.2192  0.4296
10428PW      WM36220   8.332   8.902  13.310 -0.0271 -0.2144 -0.0809
10429PW       W36221   4.837  10.556   5.169 -0.2258  0.4312  0.3416
10429PW      WP36222   4.744  10.565   5.064  0.1098  0.0642 -0.0014
10429PW      WM36223   4.939  10.464   5.193 -0.1178  0.1703 -0.8184
10430PW       W36224   1.739   7.388   4.137  0.2324 -0.0036  0.0227
10430PW      WP36225   1.815   7.505   4.154  0.0193  0.1549 -0.0940
10430PW      WM36226   1.671   7.478   4.054  0.0063 -0.0710  0.1341
10431PW       W36227   5.324   4.464   0.557 -0.2695  0.3401  0.5061
10431PW      WP36228   5.423   4.412   0.642  0.2735  0.5374  0.0257
10431PW      WM36229   5.288   4.373   0.657 -0.4530  0.2159  0.3313
10432PW       W36230   5.378   9.632   0.573 -0.5730  0.1968  0.1978
10432PW      WP36231   5.344   9.559   0.687 -0.2213 -0.1498  0.0913
10432PW      WM36232   5.275   9.639   0.480 -0.4532  0.2331  0.0662
10433PW       W36233   1.261  10.487  11.967  0.3512 -0.2681  0.0683
10433PW      WP36234   1.336  10.594  11.914 -0.4139  0.3190  0.0898
10433PW      WM36235   1.127  10.525  11.975  0.3538 -0.2584  0.0688
10434PW       W36236   1.334   4.192   2.570  0.2561 -0.0684 -0.4351
10434PW      WP36237   1.202   4.192   2.525  0.0685 -0.1980  0.0881
10434PW      WM36238   1.445   4.269   2.533  0.1480  0.1090 -0.3951
10435PW       W36239   6.272   4.933  10.841  0.0962 -0.2568 -0.3355
10435PW      WP36240   6.378   4.935  10.932 -0.1366  0.3781 -0.0509
10435PW      WM36241   6.136   4.905  10.860  0.2112 -0.3341  0.5879
10436PW       W36242   3.059  10.682   0.924  0.0815  0.4578  0.5180
10436PW      WP36243   2.961  10.738   1.007 -0.2113  0.3583  0.2491
10436PW      WM36244   3.064  10.733   0.794  0.3183  0.0678  0.3665
10437PW       W36245   4.593   5.506  12.224 -0.1646 -0.0385 -0.1762
10437PW      WP36246   4.661   5.396  12.277  0.1230  0.2988  0.1764
10437PW      WM36247   4.573   5.399  12.135 -0.1540 -0.2165  0.0326
10438PW       W36248   5.226   8.489  11.822 -0.3110 -0.1071  0.0427
10438PW      WP36249   5.209   8.504  11.960  0.0866  0.3886  0.0533
10438PW      WM36250   5.250   8.611  11.886 -0.0735 -0.1747  0.0856
10439PW       W36251   7.320   8.664   2.563 -0.3942 -0.2514 -0.0212
10439PW      WP36252   7.272   8.775   2.492  0.2389  0.1029  0.0646
10439PW      WM36253   7.388   8.554   2.617  0.2794  0.2808  0.3004
10440PW       W36254  11.746   1.772   1.048 -0.2001  0.0938  0.3343
10440PW      WP36255  11.682   1.811   0.930  0.1935  0.0050  0.0795
10440PW      WM36256  11.828   1.856   1.124  0.3193  0.1201 -0.2130
10441PW       W36257   9.996   5.216  10.803 -0.5672 -0.2063  0.0026
10441PW      WP36258   9.989   5.080  10.835  0.1257 -0.4131 -0.5974
10441PW      WM36259  10.001   5.347  10.753 -0.1579 -0.3145 -0.2643
10442PW       W36260   9.972   0.451   2.492  0.9315 -0.3069 -0.3878
10442PW      WP36261   9.900   0.471   2.373  0.4273  0.1462 -0.0303
10442PW      WM36262  10.032   0.566   2.545 -0.1444  0.1759 -0.0727
10443PW       W36263   0.827   6.783  11.487 -0.4227 -0.4805 -0.1265
10443PW      WP36264   0.780   6.912  11.461  0.0470 -0.2475  0.1156
10443PW      WM36265   0.779   6.657  11.525  0.0829 -0.5750  0.2459
10444PW       W36266   6.064   7.275   0.056  0.1825  0.3352 -0.1170
10444PW      WP36267   6.019   7.192   0.159  0.8054  0.0498 -0.0527
10444PW      WM36268   5.969   7.363   0.003 -0.4480 -0.0134  0.3688
10445PW       W36269  10.314   8.073  12.416  0.1841 -0.4770  0.0251
10445PW      WP36270  10.256   8.191  12.464 -0.0521 -0.4925 -0.2100
10445PW      WM36271  10.340   8.192  12.346 -0.6062 -0.0367  0.4152
10446PW       W36272   8.291  11.763  11.411  0.3054 -0.8121  0.4634
10446PW      WP36273   8.398  11.791  11.497  0.3951 -0.2705  0.1970
10446PW      WM36274   8.176  11.767  11.492  0.0388 -0.3588  0.0912
10447PW       W36275  11.632  11.863   9.586  0.2336  0.3521  0.0226
10447PW      WP36276  11.647  11.832   9.450 -0.1955  0.6743 -0.1075
10447PW      WM36277  11.683  11.798   9.699  0.1849  0.2331 -0.0224
10448PW       W36278   6.578   1.154  12.319  0.2596 -0.2012 -0.0042
10448PW      WP36279   6.544   1.124  12.186  0.2153  0.4233 -0.1495
10448PW      WM36280   6.679   1.246  12.348 -0.5223  0.7429 -0.0150
10449PW       W36281   8.483   4.188   0.219  0.4609  0.0076 -0.3393
10449PW      WP36282   8.530   4.067   0.272 -0.3338 -0.2896 -0.2430
10449PW      WM36283   8.392   4.190   0.113 -0.4294 -0.1825  0.3598
10450PW       W36284  10.321   6.878   9.083  0.8738  0.1378 -0.4599
10450PW      WP36285  10.250   6.801   8.990 -0.4064  0.4603  0.1422
10450PW      WM36286  10.322   6.957   9.198 -0.3871 -0.1258 -0.1973
10451PW       W36287   7.478   0.337  10.411  0.2529  0.3417 -0.2423
10451PW      WP36288   7.522   0.207  10.436 -0.5830 -0.1436 -0.9745
10451PW      WM36289   7.382   0.368  10.509  0.1843  0.2644 -0.2845
10452PW       W36290   5.697   7.454   9.335 -0.2882 -0.1894 -0.2878
10452PW      WP36291   5.755   7.390   9.445 -0.0800  0.0550 -0.2496
10452PW      WM36292   5.682   7.571   9.258  0.2146 -0.1353 -0.3208
10453PW       W36293   4.196   4.230   4.083 -0.1239  0.1697  0.0139
10453PW      WP36294   4.246   4.099   4.088  0.1638  0.2416 -0.5565
10453PW      WM36295   4.081   4.165   4.130  0.0366 -0.0543  0.1085
10454PW       W36296   1.432   5.709  12.621 -0.1888  0.0117 -0.0188
10454PW      WP36297   1.443   5.848  12.611 -0.1887  0.0312  0.2292
10454PW      WM36298   1.567   5.734  12.595 -0.1112  0.0231  0.3711
10455PW       W36299  10.711   4.984   2.052 -0.0034  0.0432 -0.4640
10455PW      WP36300  10.745   4.848   2.043  0.2398  0.0745 -0.1216
10455PW      WM36301  10.706   5.092   1.962  0.4680  0.0867 -0.4538
10456PW       W36302   2.411   7.102   4.767  0.2632  0.0373  0.3246
10456PW      WP36303   2.368   7.039   4.884  0.4362  0.2839  0.5269
10456PW      WM36304   2.350   7.220   4.811  0.2394  0.0807  0.1802
10457PW       W36305   0.625   5.623   3.611  0.1860 -0.2674 -0.1483
10457PW      WP36306   0.659   5.498   3.556 -0.1313 -0.3180 -0.2384
10457PW      WM36307   0.506   5.628   3.538  0.1039 -0.1946 -0.0100
10458PW       W36308   6.710   2.912   3.070  0.0119  0.1669  0.0384
10458PW      WP36309   6.814   2.841   3.009  0.2077  0.2420  0.2762
10458PW      WM36310   6.598   2.889   2.989  0.0007  0.0628  0.0832
10459PW       W36311  11.860   3.410   4.140  0.0974  0.0978  0.1466
10459PW      WP36312  11.994   3.369   4.140 -0.1113 -0.6596 -0.0482
10459PW      WM36313  11.851   3.292   4.215  0.3409  0.0974  0.1799
10460PW       W36314   1.411  11.569   4.799  0.0330  0.0574 -0.0714
10460PW      WP36315   1.444  11.574   4.935 -0.2546 -0.1585  0.0119
10460PW      WM36316   1.285  11.551   4.857 -0.0843  0.0136 -0.3319
10461PW       W36317   2.214   6.334   1.919  0.2458 -0.0269 -0.1920
10461PW      WP36318   2.191   6.271   1.796 -0.1398  0.0723 -0.1772
10461PW      WM36319   2.103   6.268   1.865 -0.1384 -0.0923  0.6035
10462PW       W36320   0.549   0.135   2.164  0.3250  0.2952  0.2457
10462PW      WP36321   0.605   0.143   2.036 -0.7244 -0.5504 -0.3465
10462PW      WM36322   0.622   0.153   2.282  0.2088 -0.0383  0.3722
10463PW       W36323   5.139   6.302   3.747  0.3426 -0.5879  0.2080
10463PW      WP36324   5.128   6.377   3.864 -0.3353 -0.5829  0.1573
10463PW      WM36325   5.184   6.343   3.873  0.5028 -0.7447  0.2038
10464PW       W36326   2.473   7.930  12.636  0.0052 -0.0110 -0.3431
10464PW      WP36327   2.608   7.963  12.624  0.0460  0.0556  0.1738
10464PW      WM36328   2.554   7.827  12.588  0.6126  0.3022 -0.0467
10465PW       W36329   9.150   0.965  11.265  0.3890 -0.3369  0.0546
10465PW      WP36330   9.234   0.943  11.155 -0.1365 -0.1862 -0.4004
10465PW      WM36331   9.144   0.917  11.396 -0.4110  0.1419  0.2238
10466PW       W36332   7.834  10.999   4.370 -0.2535  0.0084  0.1225
10466PW      WP36333   7.875  11.024   4.502 -0.1382  0.2075  0.0501
10466PW      WM36334   7.711  11.056   4.335 -0.0780  0.0323 -0.5165
10467PW       W36335   6.404   7.911  10.881  0.3532 -0.3408 -0.1237
10467PW      WP36336   6.347   7.884  10.756  0.0865 -0.1106 -0.0593
10467PW      WM36337   6.399   7.844  11.004 -0.2287 -0.2721 -0.0916
10468PW       W36338  11.813   6.222  11.557 -0.5558  0.1679 -0.1548
10468PW      WP36339  11.823   6.105  11.481 -0.1483  0.0725  0.0335
10468PW      WM36340  11.748   6.233  11.680 -0.2386  0.3551  0.0035
10469PW       W36341   5.949   8.576   3.937 -0.0162 -0.1368  0.1504
10469PW      WP36342   5.953   8.712   3.969 -0.1140 -0.0226 -0.2946
10469PW      WM36343   5.841   8.647   3.884 -0.5456 -0.3337  0.8837
10470PW       W36344  10.901   7.483   4.826 -0.5733 -0.1505 -0.1777
10470PW      WP36345  10.964   7.390   4.910 -0.1169  0.7044  0.5060
10470PW      WM36346  10.853   7.538   4.945  0.1348 -0.3000  0.2093
10471PW       W36347   5.155   9.103   4.836 -0.0002 -0.2742 -0.2228
10471PW      WP36348   5.272   9.058   4.774  0.2338  0.0695 -0.0519
10471PW      WM36349   5.018   9.094   4.808 -0.1567  0.7509 -0.0014
10472PW       W36350   1.856   1.948  13.213  0.2824  0.0759  0.1498
10472PW      WP36351   1.884   2.004  13.087 -0.5093  0.0909 -0.0483
10472PW      WM36352   1.805   1.820  13.188 -0.0664  0.2247  0.0623
10473PW       W36353  10.328  11.970   1.174 -0.4203 -0.0013  0.4652
10473PW      WP36354  10.195  11.945   1.136 -0.1099 -0.4332 -0.4724
10473PW      WM36355  10.382  11.879   1.083  0.4558  0.5078  0.4249
10474PW       W36356   5.781   2.179  12.018 -0.1134  0.1248 -0.1651
10474PW      WP36357   5.786   2.247  11.895 -0.1981  0.5871  0.0777
10474PW      WM36358   5.700   2.290  12.042 -0.1541 -0.0252  0.4698
10475PW       W36359   5.810  11.671   3.239  0.4231 -0.3357 -0.0359
10475PW      WP36360   5.745  11.580   3.154  0.0056  0.4025 -0.5676
10475PW      WM36361   5.950  11.665   3.231  0.4487 -0.1233  0.2003
10476PW       W36362  12.125   5.454   3.787  0.3556  0.2046 -0.3042
10476PW      WP36363  12.104   5.412   3.656 -0.1171 -0.2075 -0.1133
10476PW      WM36364  12.065   5.516   3.897  0.4878  0.1790 -0.2166
10477PW       W36365  10.020   6.261  12.790 -0.0581  0.1375  0.3216
10477PW      WP36366   9.987   6.392  12.751 -0.2909 -0.1940 -0.7826
10477PW      WM36367   9.923   6.250  12.689  0.0540 -0.1781  0.2424
10478PW       W36368  11.207   1.610  10.723 -0.2850  0.2596  0.0916
10478PW      WP36369  11.180   1.747  10.731 -0.0708  0.3683 -0.6386
10478PW      WM36370  11.343   1.637  10.741 -0.1041 -0.1895 -0.4374
10479PW       W36371  10.570   3.328  11.984 -0.0294  0.2296 -0.1224
10479PW      WP36372  10.444   3.340  12.044  0.1231 -0.1776  0.3050
10479PW      WM36373  10.671   3.307  12.078 -0.1971 -0.0909 -0.0078
10480PW       W36374   0.685   5.911   3.179 -0.0304 -0.4304 -0.1801
10480PW      WP36375   0.570   5.833   3.197  0.1131 -0.6576 -0.2355
10480PW      WM36376   0.681   5.953   3.046 -0.1394  0.1101 -0.0208
10481PW       W36377   1.647   1.554   0.285 -0.2329  0.3875 -0.2152
10481PW      WP36378   1.751   1.620   0.351  0.1829 -0.1808 -0.2674
10481PW      WM36379   1.517   1.504   0.299  0.0725 -0.6296 -0.5590
10482PW       W36380   3.157   9.100  10.725 -0.1079  0.2887 -0.1921
10482PW      WP36381   3.026   9.134  10.763 -0.0163  0.0507  0.3978
10482PW      WM36382   3.113   9.005  10.631 -0.1842  0.5096 -0.3851
10483PW       W36383   7.205   6.319  10.013 -0.0063 -0.2042 -0.0658
10483PW      WP36384   7.218   6.214  10.104 -0.1676 -0.2543 -0.0993
10483PW      WM36385   7.290   6.348   9.905  0.0073  0.4303  0.0934
10484PW       W36386  -0.011   6.686   9.680 -0.0985  0.2407  0.0165
10484PW      WP36387   0.058   6.665   9.800 -0.0742 -0.2512 -0.0713
10484PW      WM36388  -0.024   6.620   9.557 -0.3210  0.0448  0.1400
10485PW       W36389   5.530   9.554   2.479  0.0431 -0.2241  0.2306
10485PW      WP36390   5.592   9.436   2.521  0.3715  0.0078  0.4133
10485PW      WM36391   5.448   9.664   2.509  0.3978  0.1114  0.0161
10486PW       W36392   4.605   0.683  12.941 -0.0928 -0.7117  0.0386
10486PW      WP36393   4.684   0.700  12.826  0.0977  0.0615  0.2506
10486PW      WM36394   4.529   0.624  12.839 -0.4744  0.2292 -0.2848
10487PW       W36395   7.835   5.481   5.519 -0.5070 -0.3470  0.2645
10487PW      WP36396   7.826   5.617   5.490  0.0264 -0.3256  0.1463
10487PW      WM36397   7.972   5.500   5.541 -0.4336 -0.5187 -0.0169
10488PW       W36398   6.080   3.144   3.429 -0.0758  0.2781  0.0581
10488PW      WP36399   6.098   3.280   3.401  0.5856  0.1748 -0.1099
10488PW      WM36400   6.075   3.023   3.358  0.6105  0.2884 -0.0394
10489PW       W36401   1.093   8.869   1.443 -0.3979 -0.0551 -0.3144
10489PW      WP36402   1.225   8.849   1.399 -0.1244  0.0717  0.3868
10489PW      WM36403   1.093   8.979   1.530  0.1329  0.0240 -0.3946
10490PW       W36404   0.345   0.245   9.868 -0.0281 -0.0468  0.1075
10490PW      WP36405   0.340   0.385   9.863 -0.3114 -0.0589 -0.0809
10490PW      WM36406   0.411   0.125   9.841 -0.0205  0.0383 -0.2741
10491PW       W36407   3.389   5.630   2.620 -0.3259 -0.1828  0.3368
10491PW      WP36408   3.476   5.532   2.670 -0.1347 -0.0766  0.2211
10491PW      WM36409   3.433   5.761   2.645 -0.0303 -0.1969 -0.0545
10492PW       W36410   0.304   7.464   2.225 -0.2899  0.0539 -0.0670
10492PW      WP36411   0.370   7.567   2.292  0.2046 -0.0768 -0.3248
10492PW      WM36412   0.377   7.365   2.158 -0.3186 -0.1241  0.1582
10493PW       W36413   1.459   2.713   1.295 -0.2193  0.0746  0.6804
10493PW      WP36414   1.593   2.676   1.309 -0.1447 -0.2001 -0.3341
10493PW      WM36415   1.456   2.846   1.252 -0.3911 -0.1438 -0.0617
10494PW       W36416   1.153   1.033  11.866  0.2179  0.1130  0.2463
10494PW      WP36417   1.076   1.139  11.815  0.0037 -0.0356  0.2560
10494PW      WM36418   1.229   0.976  11.763 -0.3517  0.0896 -0.1788
10495PW       W36419   3.164   0.119   3.088 -0.0718 -0.0678 -0.1218
10495PW      WP36420   3.039   0.182   3.076 -0.0474 -0.0648 -0.3856
10495PW      WM36421   3.189   0.219   3.183 -0.3233 -0.1237  0.0070
10496PW       W36422   4.357   1.596  11.346 -0.4507 -0.0992  0.1824
10496PW      WP36423   4.281   1.526  11.441 -0.4932 -0.4441 -0.0977
10496PW      WM36424   4.283   1.646  11.239  0.1997 -0.3910 -0.4408
10497PW       W36425   7.998   2.347   4.646 -0.0631 -0.0199  0.0623
10497PW      WP36426   7.916   2.299   4.748  0.1360 -0.1692  0.1533
10497PW      WM36427   7.871   2.303   4.609 -0.0921  0.1161 -0.0027
10498PW       W36428   3.493   8.704  12.629 -0.0814  0.2863  0.3054
10498PW      WP36429   3.477   8.716  12.490  0.1320  0.0624  0.2593
10498PW      WM36430   3.510   8.653  12.758  0.2592  0.1235  0.2015
10499PW       W36431   0.059  11.540   0.399 -0.5180  0.1776  0.0421
10499PW      WP36432   0.028  11.452   0.295 -0.2771 -0.0862  0.1856
10499PW      WM36433   0.008  11.444   0.488 -0.0748 -0.2287 -0.1219
10500PW       W36434   5.329   0.570   0.196  0.2586 -0.2310 -0.1626
10500PW      WP36435   5.227   0.560   0.291  0.3573 -0.1736 -0.0495
10500PW      WM36436   5.331   0.510   0.070  0.0155 -0.1712 -0.1974
10501PW       W36437   6.938   8.662  10.288  0.3435 -0.3140 -0.1458
10501PW      WP36438   7.003   8.785  10.284 -0.1015 -0.0403  0.4061
10501PW      WM36439   6.905   8.529  10.320  0.2935 -0.2523  0.0633
10502PW       W36440   3.010  11.784   1.141  0.1229  0.2586 -0.4067
10502PW      WP36441   2.871  11.767   1.143  0.1433  0.0927 -0.2354
10502PW      WM36442   3.047  11.707   1.029  0.0086 -0.0683 -0.2262
10503PW       W36443  10.447  10.547   9.331  0.0762 -0.1988 -0.0645
10503PW      WP36444  10.527  10.661   9.322 -0.0171 -0.1508 -0.3562
10503PW      WM36445  10.381  10.649   9.401  0.0976 -0.1601 -0.1000
10504PW       W36446   8.159   9.926   4.553 -0.2107  0.1110 -0.3772
10504PW      WP36447   8.275  10.002   4.571 -0.0998 -0.0896 -0.2230
10504PW      WM36448   8.045   9.899   4.477 -0.3779  0.3506 -0.2212
10505PW       W36449   3.583   2.186  12.626  0.2670  0.5548 -0.1996
10505PW      WP36450   3.688   2.263  12.574  0.2726  0.4870 -0.2900
10505PW      WM36451   3.499   2.151  12.519  0.1651 -0.2361  0.1061
10506PW       W36452   5.900  11.290   1.777  0.2692 -0.1891  0.1342
10506PW      WP36453   5.802  11.355   1.700  0.7086  0.0997 -0.2079
10506PW      WM36454   5.861  11.158   1.750 -0.0432 -0.1010  0.1377
10507PW       W36455   6.983   2.689   3.447  0.1877 -0.1990  0.0461
10507PW      WP36456   7.074   2.588   3.411  0.3253 -0.0258 -0.0984
10507PW      WM36457   6.940   2.688   3.580  0.2199  0.2488  0.0656
10508PW       W36458   9.995   8.232   9.101  0.3428  0.0988  0.3594
10508PW      WP36459   9.888   8.260   9.187 -0.2197 -0.2040 -0.1999
10508PW      WM36460  10.076   8.125   9.062  0.3557  0.3888 -0.5332
10509PW       W36461   9.964   7.118   0.384 -0.0584  0.1747 -0.1163
10509PW      WP36462   9.868   7.189   0.311 -0.0803 -0.0300 -0.2920
10509PW      WM36463  10.051   7.011   0.410 -0.0538  0.1930 -0.0572
10510PW       W36464   7.617   6.132   3.717  0.0625 -0.2889 -0.0718
10510PW      WP36465   7.577   6.266   3.719  0.3620 -0.1952 -0.1012
10510PW      WM36466   7.529   6.078   3.622  0.2295 -0.2637 -0.2442
10511PW       W36467  11.842   0.612   4.679 -0.0425 -0.0690 -0.2180
10511PW      WP36468  11.778   0.726   4.627  0.1654  0.3284  0.3485
10511PW      WM36469  11.882   0.538   4.567 -0.1306 -0.4817  0.0169
10512PW       W36470   8.786  10.663   2.880  0.3330 -0.1728  0.2248
10512PW      WP36471   8.887  10.759   2.887 -0.1592  0.3690  0.1921
10512PW      WM36472   8.700  10.701   2.777  0.6842  0.1511  0.0391
10513PW       W36473   3.749   2.642   0.139 -0.0447  0.2178 -0.3149
10513PW      WP36474   3.872   2.646   0.206 -0.5113 -0.0335  0.6513
10513PW      WM36475   3.714   2.776   0.119 -0.2544  0.2559  0.2346
10514PW       W36476  11.602   2.590   8.950  0.4452 -0.1322 -0.3010
10514PW      WP36477  11.735   2.588   8.908  0.5174  0.4850 -0.1541
10514PW      WM36478  11.533   2.487   9.015  0.0903 -0.0439 -0.5243
10515PW       W36479   7.581   8.680   5.020 -0.1295 -0.0587  0.1398
10515PW      WP36480   7.669   8.619   5.110 -0.3923 -0.0873  0.3830
10515PW      WM36481   7.567   8.542   5.038  0.0448 -0.0644  0.2495
10516PW       W36482   3.869  11.049  11.696 -0.2541  0.2044  0.2871
10516PW      WP36483   3.768  10.959  11.732 -0.1022  0.0479  0.3289
10516PW      WM36484   3.736  11.080  11.727 -0.4519 -0.1019 -0.1904
10517PW       W36485  10.907  10.624   9.086  0.1772 -0.1991 -0.0129
10517PW      WP36486  10.898  10.486   9.109 -0.1867 -0.2410 -0.3543
10517PW      WM36487  10.773  10.636   9.050  0.0519  0.3888  0.5673
10518PW       W36488   8.606   6.809   5.126  0.2646  0.0434 -0.0724
10518PW      WP36489   8.676   6.929   5.111 -0.0654  0.2007 -0.4562
10518PW      WM36490   8.501   6.848   5.041 -0.3403  0.0748  0.6367
10519PW       W36491   7.279   8.827   8.720 -0.0585 -0.0223 -0.1060
10519PW      WP36492   7.195   8.890   8.628  0.1030  0.2105 -0.0994
10519PW      WM36493   7.396   8.853   8.793  0.0163  0.3934 -0.3553
10520PW       W36494   8.834   8.598  10.464  0.3432 -0.0431 -0.3359
10520PW      WP36495   8.721   8.574  10.385  0.2371 -0.2962 -0.1149
10520PW      WM36496   8.971   8.619  10.444  0.3418  0.1396 -0.1651
10521PW       W36497   4.189   7.948   3.476 -0.2212 -0.0653 -0.2130
10521PW      WP36498   4.269   7.833   3.478  0.1895  0.2124 -0.0637
10521PW      WM36499   4.120   8.059   3.426 -0.0568 -0.1248 -0.5918
10522PW       W36500   9.667   2.435  10.377  0.2069 -0.0751 -0.1315
10522PW      WP36501   9.723   2.315  10.334  0.7038  0.0361  0.1625
10522PW      WM36502   9.558   2.437  10.290  0.1296  0.3049 -0.0349
10523PW       W36503   6.165   8.945   2.188  0.1770 -0.2507  0.4675
10523PW      WP36504   6.218   9.074   2.171 -0.3998 -0.0457  0.0579
10523PW      WM36505   6.046   8.978   2.254 -0.0633 -0.0494 -0.0371
10524PW       W36506   0.884   3.838  10.506  0.0777 -0.0613  0.1343
10524PW      WP36507   0.942   3.948  10.570  0.2786 -0.0945  0.0123
10524PW      WM36508   0.759   3.794  10.552  0.2838 -0.3967  0.4006
10525PW       W36509   4.244  10.811  12.053  0.0012  0.1964  0.0334
10525PW      WP36510   4.350  10.822  12.144  0.0074  0.1013  0.0382
10525PW      WM36511   4.201  10.748  12.170  0.0856  0.2318  0.0841
10526PW       W36512   2.359   9.757  12.901  0.1650  0.0296 -0.2600
10526PW      WP36513   2.294   9.876  12.865 -0.1652 -0.0935 -0.0854
10526PW      WM36514   2.380   9.619  12.906  0.6750  0.0891 -0.4318
10527PW       W36515  11.881   8.849   4.550 -0.3250 -0.0973 -0.3419
10527PW      WP36516  11.890   8.711   4.569 -0.0273  0.0013  0.3935
10527PW      WM36517  11.998   8.915   4.510 -0.1456 -0.3354 -0.2205
10528PW       W36518  11.955   7.323   9.119  0.1389 -0.0488 -0.0669
10528PW      WP36519  11.853   7.231   9.091  0.1996 -0.1067 -0.1021
10528PW      WM36520  12.077   7.327   9.187  0.1829 -0.2353 -0.1311
10529PW       W36521   3.580   1.962   8.057  0.4533 -0.6290  0.2062
10529PW      WP36522   3.709   1.909   8.045  0.5831 -0.2762 -0.0445
10529PW      WM36523   3.614   2.098   8.049  0.1225 -0.5631 -0.5033
10530PW       W36524   3.546  11.071  10.386 -0.4214  0.1207 -0.2943
10530PW      WP36525   3.677  11.037  10.423 -0.5544 -0.0697  0.0289
10530PW      WM36526   3.614  10.987  10.297  0.4875  0.1682  0.2785
10531PW       W36527  11.139   5.361   5.150  0.8428 -0.1621 -0.1593
10531PW      WP36528  11.034   5.270   5.171  0.3815  0.3571 -0.1033
10531PW      WM36529  11.225   5.396   5.254  0.3058  0.0644  0.2315
10532PW       W36530   3.278  10.060   9.562 -0.2728  0.1995  0.2332
10532PW      WP36531   3.272  10.025   9.427 -0.1497  0.1370  0.2433
10532PW      WM36532   3.393  10.129   9.604  0.0399 -0.2030  0.0642
10533PW       W36533   6.689   3.295   9.146 -0.1592  0.2946 -0.2146
10533PW      WP36534   6.640   3.302   9.278  0.2489 -0.1714 -0.0199
10533PW      WM36535   6.612   3.412   9.149 -0.3427  0.1823 -0.4158
10534PW       W36536   6.894   3.440   1.629  0.4396  0.2531  0.3195
10534PW      WP36537   6.824   3.327   1.673  0.7545 -0.3447 -0.5775
10534PW      WM36538   6.938   3.556   1.565  0.5263  0.1283  0.1509
10535PW       W36539   3.598   3.276   0.862  0.5528 -0.0664 -0.0713
10535PW      WP36540   3.730   3.322   0.856  0.4960  0.1175  0.0523
10535PW      WM36541   3.603   3.174   0.766 -0.0764  0.0454 -0.2511
10536PW       W36542   4.188   8.345   2.857 -0.4646 -0.3391  0.2659
10536PW      WP36543   4.231   8.405   2.976 -0.0143 -0.4537  0.1690
10536PW      WM36544   4.090   8.278   2.784 -0.2045 -0.2540 -0.1796
10537PW       W36545   0.493   4.049   1.269 -0.2904 -0.2052  0.4091
10537PW      WP36546   0.429   4.158   1.328  0.0514  0.2316  0.0147
10537PW      WM36547   0.557   4.040   1.145 -0.1448  0.6031  0.3957
10538PW       W36548   2.332   1.672  10.541  0.0729 -0.2579 -0.3310
10538PW      WP36549   2.461   1.623  10.564  0.1531  0.0271 -0.1401
10538PW      WM36550   2.374   1.631  10.414  0.0940  0.1014 -0.4481
10539PW       W36551   3.733   5.908  12.555  0.1959  0.5567  0.0265
10539PW      WP36552   3.819   5.937  12.662 -0.0149 -0.4791  0.5377
10539PW      WM36553   3.772   5.835  12.442  0.2563 -0.1722  0.4927
10540PW       W36554   1.904   6.334   4.125  0.1629 -0.1906  0.2841
10540PW      WP36555   1.876   6.422   4.231 -0.1293 -0.3584  0.3510
10540PW      WM36556   1.975   6.396   4.021 -0.0914 -0.2947  0.0444
10541PW       W36557   5.831   1.076   9.957 -0.0531 -0.0258 -0.0658
10541PW      WP36558   5.888   1.204   9.959 -0.5050  0.1856 -0.1338
10541PW      WM36559   5.938   1.015   9.890  0.0383  0.1341 -0.0681
10542PW       W36560   9.534   1.634  12.676  0.2508 -0.2880  0.2565
10542PW      WP36561   9.648   1.582  12.615  0.1931 -0.0289 -0.0916
10542PW      WM36562   9.475   1.553  12.578  0.0311  0.3970 -0.2227
10543PW       W36563   0.293   6.041   9.203  0.2562  0.1674  0.3283
10543PW      WP36564   0.268   5.931   9.286 -0.4680 -0.0049 -0.0676
10543PW      WM36565   0.157   6.047   9.237  0.1487 -0.0577 -0.0299
10544PW       W36566  10.981  10.325   3.603  0.0135  0.3414 -0.1965
10544PW      WP36567  10.939  10.318   3.469  0.2191  0.3588 -0.2629
10544PW      WM36568  10.949  10.459   3.623 -0.0912  0.3725 -0.5420
10545PW       W36569   4.156   1.434  12.699  0.1037 -0.1010  0.2165
10545PW      WP36570   4.046   1.504  12.750  0.4393  0.3404  0.3686
10545PW      WM36571   4.287   1.409  12.657  0.1533 -0.1417  0.3936
10546PW       W36572  12.156   1.977   9.025  0.1151  0.3513  0.0654
10546PW      WP36573  12.238   2.086   9.058 -0.0786  0.5049  0.0510
10546PW      WM36574  12.037   1.993   8.953  0.1660  0.0789 -0.0855
10547PW       W36575   8.692   8.781   1.531 -0.5126  0.0999  0.0483
10547PW      WP36576   8.743   8.700   1.428  0.0351  0.1333  0.2757
10547PW      WM36577   8.630   8.863   1.436 -0.2658  0.1680 -0.0580
10548PW       W36578   7.943   2.929   0.800 -0.1604 -0.3741 -0.1713
10548PW      WP36579   7.973   2.837   0.901  0.7778 -0.0457 -0.1104
10548PW      WM36580   7.877   2.860   0.697 -0.5486 -0.2570 -0.0135
10549PW       W36581   7.112   0.088   2.932 -0.2225  0.0154 -0.1036
10549PW      WP36582   7.168  -0.012   2.852  0.0422  0.1097 -0.0412
10549PW      WM36583   7.177   0.068   3.054 -0.3710  0.2055  0.0097
10550PW       W36584  11.640   4.402   2.951  0.2531 -0.2974  0.3825
10550PW      WP36585  11.574   4.309   2.870  0.5139  0.1375 -0.3761
10550PW      WM36586  11.699   4.430   3.075  0.3900 -0.7672  0.4343
10551PW       W36587   2.409   1.160   4.861  0.2269 -0.0849  0.0843
10551PW      WP36588   2.419   1.164   5.000 -0.1242 -0.0756  0.1127
10551PW      WM36589   2.485   1.043   4.849  0.2041 -0.0671 -0.3278
10552PW       W36590   7.856  10.889   0.101  0.0949  0.2506  0.4189
10552PW      WP36591   7.773  10.932   0.205  0.0323  0.0643  0.4483
10552PW      WM36592   7.927  10.987   0.031  0.0718  0.1311  0.2259
10553PW       W36593   6.244   4.080   9.141 -0.2186 -0.1991  0.5379
10553PW      WP36594   6.246   3.960   9.069 -0.5921 -0.1743  0.4735
10553PW      WM36595   6.299   4.200   9.094 -0.2875 -0.2647  0.2854
10554PW       W36596   9.540  10.980   2.431  0.6211  0.0899  0.4175
10554PW      WP36597   9.535  11.113   2.474  0.3520  0.2104  0.0418
10554PW      WM36598   9.615  10.872   2.383  0.1977 -0.0466  0.0307
10555PW       W36599   4.291   2.513   2.591 -0.2515  0.4632  0.2247
10555PW      WP36600   4.197   2.417   2.629  0.2895 -0.2681 -0.1358
10555PW      WM36601   4.314   2.648   2.619  0.5578  0.3294  0.3319
10556PW       W36602   5.001   6.372  12.469 -0.5085  0.1885  0.1998
10556PW      WP36603   5.078   6.255  12.478 -0.5963  0.0708 -0.3797
10556PW      WM36604   4.909   6.268  12.449  0.2563 -0.5108  0.0491
10557PW       W36605   5.831   3.442   9.017 -0.1243 -0.0155  0.1619
10557PW      WP36606   5.847   3.319   8.953  0.0208  0.1281 -0.0829
10557PW      WM36607   5.895   3.564   8.994  0.0099 -0.1870 -0.4516
10558PW       W36608   2.270   2.987   2.398 -0.0138 -0.1996  0.0923
10558PW      WP36609   2.378   2.902   2.426  0.1725  0.1352  0.4227
10558PW      WM36610   2.328   3.107   2.440  0.0002 -0.2020  0.0799
10559PW       W36611  10.961   8.094   0.859  0.4157  0.2976  0.0577
10559PW      WP36612  11.054   8.075   0.756  0.1860  0.1830 -0.1344
10559PW      WM36613  10.915   8.035   0.978  0.4334  0.4654  0.1495
10560PW       W36614   4.528   1.683   9.730  0.0408  0.2501  0.4612
10560PW      WP36615   4.647   1.647   9.794  0.3850  0.0937 -0.2151
10560PW      WM36616   4.507   1.819   9.705  0.4275  0.2329 -0.0670
10561PW       W36617  11.633   3.223   8.603 -0.0367 -0.1112  0.1293
10561PW      WP36618  11.496   3.241   8.623  0.0393  0.3107  0.3241
10561PW      WM36619  11.718   3.112   8.592  0.2212  0.0474  0.4478
10562PW       W36620   6.127   6.609  12.039  0.0106  0.3292  0.2992
10562PW      WP36621   6.024   6.699  12.011 -0.3270 -0.1072  0.0861
10562PW      WM36622   6.136   6.639  12.175 -0.3996  0.4927  0.2978
10563PW       W36623  11.363   1.775   2.456 -0.3680 -0.1225  0.1088
10563PW      WP36624  11.445   1.689   2.529  0.4270  0.6597  0.2248
10563PW      WM36625  11.359   1.906   2.506 -0.6866 -0.1708  0.2221
10564PW       W36626   3.888   0.217  12.715 -0.0023 -0.2725  0.2165
10564PW      WP36627   3.938   0.338  12.765  0.0222 -0.2999  0.2582
10564PW      WM36628   3.805   0.323  12.675  0.0506 -0.4747 -0.4949
10565PW       W36629  10.088   4.137   8.409  0.2346 -0.1952 -0.1718
10565PW      WP36630   9.973   4.059   8.394 -0.2373  0.4463 -0.1383
10565PW      WM36631  10.116   4.265   8.359 -0.3976 -0.0788 -0.2717
10566PW       W36632  10.081   1.900  10.020 -0.0145 -0.0583 -0.0333
10566PW      WP36633  10.050   2.002  10.111  0.4545  0.1196 -0.0616
10566PW      WM36634  10.043   1.944  10.148 -0.0801 -0.0284 -0.0630
10567PW       W36635  10.701   5.955  11.540  0.1744 -0.1768  0.0010
10567PW      WP36636  10.600   6.044  11.499  0.3426  0.0205  0.0076
10567PW      WM36637  10.725   5.989  11.674 -0.3642  0.5495 -0.0527
10568PW       W36638   8.698   8.997   2.957  0.5343  0.1800 -0.1553
10568PW      WP36639   8.671   9.129   2.921  0.4715  0.2220  0.0422
10568PW      WM36640   8.828   8.947   2.976  0.5546  0.1774 -0.2938
10569PW       W36641   5.687   8.820   3.202  0.2449  0.1401 -0.1551
10569PW      WP36642   5.807   8.791   3.267  0.0867 -0.2695 -0.0255
10569PW      WM36643   5.563   8.878   3.234  0.0816 -0.0737 -0.3817
10570PW       W36644   3.739   4.773   3.994 -0.2671 -0.2564 -0.1826
10570PW      WP36645   3.624   4.853   4.000 -0.3589 -0.4062  0.2538
10570PW      WM36646   3.817   4.661   4.026 -0.1046 -0.1192 -0.0920
10571PW       W36647  10.118   3.334   2.875 -0.1515 -0.2468  0.1899
10571PW      WP36648  10.103   3.360   2.738  0.8803  0.0399  0.0906
10571PW      WM36649  10.138   3.206   2.926  0.3186 -0.2685 -0.0194
10572PW       W36650  11.806   5.321  12.171  0.2254  0.3338 -0.5932
10572PW      WP36651  11.931   5.318  12.234 -0.0046  0.1203 -0.1152
10572PW      WM36652  11.788   5.215  12.082  0.5704 -0.4141  0.1545
10573PW       W36653   3.678   8.828  12.137 -0.5499 -0.0348 -0.0724
10573PW      WP36654   3.588   8.849  12.032 -0.1490  0.0776 -0.4033
10573PW      WM36655   3.756   8.712  12.143 -0.6639 -0.1142 -0.1026
10574PW       W36656   0.885  11.013   2.322  0.1889 -0.1580  0.1701
10574PW      WP36657   1.016  10.967   2.344  0.1838 -0.2926 -0.0656
10574PW      WM36658   0.799  11.034   2.430  0.1596 -0.1817  0.1510
10575PW       W36659   9.374   4.583   0.069 -0.2851  0.2119 -0.5098
10575PW      WP36660   9.377   4.706   0.136 -0.3184 -0.1086  0.1125
10575PW      WM36661   9.252   4.533   0.116 -0.1160  0.1573 -0.1163
10576PW       W36662   6.253   8.939   4.657 -0.0355 -0.1923  0.0211
10576PW      WP36663   6.373   8.953   4.586  0.1942 -0.2869  0.3780
10576PW      WM36664   6.309   8.900   4.779 -0.2979 -0.1740  0.1498
10577PW       W36665   8.906   6.168   9.444  0.2247 -0.0995 -0.3687
10577PW      WP36666   8.840   6.045   9.441 -0.6491  0.3134  0.1225
10577PW      WM36667   8.823   6.237   9.355 -0.1502  0.1556  0.1538
10578PW       W36668   5.447  11.726   2.911 -0.1104  0.0089  0.2865
10578PW      WP36669   5.464  11.619   2.822 -0.1712  0.0273  0.2523
10578PW      WM36670   5.559  11.719   2.994  0.1658  0.1698 -0.0578
10579PW       W36671   9.936   6.198  11.957 -0.2455 -0.0058  0.3879
10579PW      WP36672   9.864   6.130  11.859  0.1180  0.0296  0.0839
10579PW      WM36673  10.046   6.111  11.958 -0.5225 -0.3707  0.2139
10580PW       W36674   3.848   4.238  10.115 -0.3134 -0.3665  0.3274
10580PW      WP36675   3.768   4.168  10.024  0.2214  0.0261 -0.5015
10580PW      WM36676   3.808   4.177  10.235 -0.6933 -0.4660  0.1558
10581PW       W36677  10.463   4.894   8.451 -0.1171  0.0328  0.0264
10581PW      WP36678  10.515   5.013   8.401  0.1168 -0.0352  0.0999
10581PW      WM36679  10.531   4.921   8.332 -0.0514  0.1161  0.0830
10582PW       W36680  12.081   5.656  12.784 -0.3246  0.2071  0.0613
10582PW      WP36681  12.135   5.721  12.895 -0.1361  0.5374 -0.2171
10582PW      WM36682  11.956   5.593  12.802 -0.1125 -0.6085 -0.8691
10583PW       W36683   5.790   9.809  12.722 -0.0744 -0.0061  0.1370
10583PW      WP36684   5.806   9.769  12.589 -0.3710 -0.9192  0.3440
10583PW      WM36685   5.705   9.769  12.826 -0.3046  0.0105 -0.0423
10584PW       W36686   2.753   8.691   3.678  0.3077 -0.0756 -0.1873
10584PW      WP36687   2.695   8.812   3.635  0.7908  0.2625  0.0674
10584PW      WM36688   2.769   8.807   3.754 -0.1745 -0.0830 -0.0602
10585PW       W36689   2.851   7.911   1.059 -0.0291  0.2909 -0.2801
10585PW      WP36690   2.933   8.012   1.110  0.1960 -0.0968  0.1580
10585PW      WM36691   2.880   7.882   0.925 -0.3223  0.0955 -0.3064
10586PW       W36692   0.160   4.022   4.446 -0.3228 -0.0799 -0.4601
10586PW      WP36693   0.216   3.894   4.460 -0.2591 -0.0136 -0.0622
10586PW      WM36694   0.159   4.148   4.385 -0.0621  0.0874 -0.1309
10587PW       W36695   6.333  11.511   2.070  0.1265  0.4336 -0.4786
10587PW      WP36696   6.397  11.475   1.951  0.2486  0.3913 -0.4007
10587PW      WM36697   6.358  11.521   2.207 -0.4800  0.5522 -0.3618
10588PW       W36698   6.829  10.300  13.212  0.5682 -0.0973  0.4514
10588PW      WP36699   6.875  10.432  13.215 -0.1533  0.1775  0.4505
10588PW      WM36700   6.800  10.165  13.237  0.4854 -0.2277 -0.2454
10589PW       W36701   3.360   9.872   0.363  0.0535  0.1054 -0.2486
10589PW      WP36702   3.417   9.800   0.469  0.0175  0.2217 -0.1490
10589PW      WM36703   3.364   9.827   0.231  0.2892  0.1416 -0.2556
10590PW       W36704   8.832   7.088  11.368 -0.2785 -0.7776 -0.2953
10590PW      WP36705   8.938   7.084  11.276  0.2013 -0.2966  0.1974
10590PW      WM36706   8.771   7.144  11.255 -0.1027 -0.1793 -0.1121
10591PW       W36707   6.114   3.703   2.167  0.2691 -0.0065  0.0383
10591PW      WP36708   6.109   3.656   2.298 -0.5320 -0.2297 -0.0428
10591PW      WM36709   6.026   3.807   2.135  0.1858 -0.0801  0.0241
10592PW       W36710   8.054   1.638   0.393  0.1443 -0.2014 -0.2753
10592PW      WP36711   8.039   1.645   0.532  0.4694 -0.1146 -0.2431
10592PW      WM36712   7.973   1.524   0.401  0.0893 -0.1714 -0.3930
10593PW       W36713   7.135   3.324  13.256 -0.1917  0.0171 -0.0549
10593PW      WP36714   7.030   3.317  13.164 -0.0267  0.3070 -0.2760
10593PW      WM36715   7.044   3.425  13.222  0.0254  0.2693  0.0960
10594PW       W36716   6.923   9.865   8.907  0.1689 -0.2797 -0.1984
10594PW      WP36717   6.820   9.774   8.932  0.1982 -0.3196 -0.2220
10594PW      WM36718   7.012   9.763   8.943  0.0529 -0.3514 -0.1127
10595PW       W36719   8.430   0.032  11.717 -0.4876  0.0349 -0.0737
10595PW      WP36720   8.481   0.130  11.630 -0.2306  0.0421  0.0810
10595PW      WM36721   8.387  -0.100  11.703  0.2899 -0.2277 -0.2000
10596PW       W36722   6.999   2.511   9.941  0.1963  0.4126  0.0821
10596PW      WP36723   6.901   2.491  10.038 -0.2312 -0.1052 -0.4222
10596PW      WM36724   7.023   2.373   9.947 -0.0342  0.3745  0.1605
10597PW       W36725   0.032   7.935  12.058 -0.0979  0.0075 -0.4733
10597PW      WP36726   0.134   8.030  12.041  0.0114 -0.0449 -0.1503
10597PW      WM36727   0.135   7.851  12.104 -0.1418  0.2010  0.0147
10598PW       W36728   1.783   0.739   3.143  0.2799  0.3773 -0.1100
10598PW      WP36729   1.845   0.762   3.020  0.3139  0.5138 -0.0680
10598PW      WM36730   1.756   0.629   3.226  0.0142  0.4084 -0.1494
10599PW       W36731   7.184   5.731   2.331 -0.3833 -0.2235  0.2493
10599PW      WP36732   7.301   5.676   2.386  0.1318  0.3704 -0.1759
10599PW      WM36733   7.079   5.823   2.327 -0.1563  0.0391  0.1275
10600PW       W36734   9.947   1.744  13.033 -0.1715  0.0171 -0.2143
10600PW      WP36735  10.040   1.752  12.929  0.0109 -0.1625 -0.0694
10600PW      WM36736   9.919   1.764  13.169  0.2402 -0.0946 -0.1067
10601PW       W36737   0.139   5.354   0.933 -0.2842  0.0513  0.0141
10601PW      WP36738   0.011   5.379   0.983 -0.4032  0.0227 -0.2680
10601PW      WM36739   0.189   5.363   0.803  0.0967  0.2403  0.1660
10602PW       W36740  11.216   2.327   5.371  0.2277 -0.0937  0.0163
10602PW      WP36741  11.246   2.440   5.293 -0.1216  0.2630  0.3787
10602PW      WM36742  11.100   2.250   5.359  0.2350 -0.1140  0.0745
10603PW       W36743   2.856   9.213  11.151 -0.0981 -0.2277  0.4504
10603PW      WP36744   2.723   9.253  11.130 -0.0062 -0.2598 -0.3188
10603PW      WM36745   2.932   9.227  11.268  0.4688 -0.0059  0.0726
10604PW       W36746   0.650   8.243   1.845  0.1643 -0.4460  0.1569
10604PW      WP36747   0.784   8.276   1.822 -0.0080  0.2993  0.0666
10604PW      WM36748   0.709   8.128   1.791  0.0905 -0.4045 -0.0156
10605PW       W36749   5.447   1.888   2.643 -0.2117 -0.0476 -0.0089
10605PW      WP36750   5.522   1.788   2.580 -0.1450  0.2755 -0.4764
10605PW      WM36751   5.405   1.958   2.529  0.7139  0.0927 -0.3065
10606PW       W36752  12.162   0.884   3.464  0.1137  0.0504  0.3180
10606PW      WP36753  12.046   0.954   3.428  0.0822  0.1276  0.5560
10606PW      WM36754  12.143   0.789   3.565  0.2708 -0.1764  0.1362
10607PW       W36755   2.885   1.357   9.073 -0.2336 -0.2156  0.2709
10607PW      WP36756   2.925   1.274   8.968  0.4670  0.0932  0.2646
10607PW      WM36757   2.972   1.249   9.092  0.3157  0.1977  0.2041
10608PW       W36758   1.821   4.152   9.036 -0.1239  0.0736  0.0894
10608PW      WP36759   1.888   4.030   9.050  0.0928  0.1025 -0.5396
10608PW      WM36760   1.686   4.112   9.035 -0.2520  0.4077  0.8633
10609PW       W36761   8.910   2.707   2.190 -0.0084 -0.2666 -0.3521
10609PW      WP36762   8.791   2.682   2.259 -0.0435  0.5144 -0.0806
10609PW      WM36763   9.005   2.610   2.223  0.4285  0.3783  0.4722
10610PW       W36764   8.831   1.994   4.625  0.1810  0.1317 -0.0826
10610PW      WP36765   8.721   1.906   4.630  0.0412  0.2949 -0.2337
10610PW      WM36766   8.969   1.971   4.621  0.2294  0.4531 -0.4111
10611PW       W36767   2.314   6.697  10.935  0.3035 -0.0694  0.0091
10611PW      WP36768   2.408   6.638  11.020  0.2573  0.3558  0.3765
10611PW      WM36769   2.330   6.617  10.822 -0.0370 -0.0070 -0.0888
10612PW       W36770  10.057   3.555   2.386 -0.5514  0.4514 -0.3085
10612PW      WP36771  10.011   3.650   2.478 -0.2736 -0.0304  0.3732
10612PW      WM36772   9.985   3.477   2.477  0.2606 -0.4607 -0.3693
10613PW       W36773  11.104   7.981   4.635  0.2121 -0.0096 -0.0643
10613PW      WP36774  11.025   8.084   4.688 -0.3368 -0.2509 -0.3705
10613PW      WM36775  11.039   7.888   4.554  0.1623 -0.2991  0.2958
10614PW       W36776   6.886   4.762   1.803 -0.1651 -0.4246  0.1362
10614PW      WP36777   6.753   4.722   1.787 -0.2003 -0.2252 -0.0873
10614PW      WM36778   6.890   4.888   1.743 -0.0179 -0.3871  0.2213
10615PW       W36779  11.934   1.198  10.561  0.5169 -0.3761  0.1016
10615PW      WP36780  11.848   1.288  10.626 -0.2420 -0.7488 -0.3213
10615PW      WM36781  12.018   1.259  10.467  0.1951 -0.7358 -0.4446
10616PW       W36782   2.877   3.394   8.872 -0.1693 -0.0125  0.4541
10616PW      WP36783   2.837   3.271   8.819 -0.4232  0.2143  0.1000
10616PW      WM36784   2.825   3.444   8.992 -0.6179  0.5792  0.0413
10617PW       W36785   4.101   2.313  11.932  0.6428 -0.0183  0.1554
10617PW      WP36786   4.077   2.247  12.053 -0.2464  0.1466  0.1053
10617PW      WM36787   4.152   2.429  11.873  0.6593 -0.0403  0.1263
10618PW       W36788   2.957   6.665  11.306 -0.0035 -0.0215  0.1624
10618PW      WP36789   3.061   6.616  11.226  0.1516  0.4786  0.0350
10618PW      WM36790   2.879   6.675  11.421  0.0319 -0.2142  0.2043
10619PW       W36791   4.561   6.551  13.247  0.0012 -0.2395 -0.1366
10619PW      WP36792   4.470   6.483  13.329  0.2200 -0.5747 -0.1608
10619PW      WM36793   4.662   6.641  13.285 -0.1950 -0.0293 -0.0994
10620PW       W36794  11.487   1.547  13.307  0.1877 -0.1924  0.6350
10620PW      WP36795  11.542   1.674  13.290  0.0101 -0.2190 -0.7409
10620PW      WM36796  11.393   1.474  13.380  0.0594 -0.7125  0.0013
10621PW       W36797   5.599   1.100   4.348  0.2055  0.1039  0.3581
10621PW      WP36798   5.498   1.157   4.270  0.6685 -0.0312 -0.3914
10621PW      WM36799   5.684   1.182   4.273 -0.0412 -0.0563 -0.1190
10622PW       W36800   4.078   0.750  10.454 -0.2895 -0.0920 -0.1453
10622PW      WP36801   3.951   0.708  10.411 -0.4897 -0.1835  0.4924
10622PW      WM36802   4.033   0.854  10.372 -0.2191  0.2244  0.2090
10623PW       W36803   3.872   5.587   5.380 -0.1198  0.2312 -0.2301
10623PW      WP36804   3.789   5.699   5.364 -0.2277  0.2294  0.2593
10623PW      WM36805   3.742   5.544   5.412  0.0522 -0.0147  0.1744
10624PW       W36806   3.005  12.075   0.386  0.2432  0.1440 -0.3675
10624PW      WP36807   3.090  12.148   0.470  0.0326  0.2822 -0.2688
10624PW      WM36808   2.927  11.967   0.426  0.1572  0.3356  0.0120
10625PW       W36809   9.525   1.269   8.249  0.0499 -0.1357  0.0830
10625PW      WP36810   9.652   1.327   8.248  0.0284 -0.0842 -0.2476
10625PW      WM36811   9.428   1.178   8.293 -0.3665  0.1238 -0.2556
10626PW       W36812   8.026   9.388  10.263  0.0320 -0.5120  0.0626
10626PW      WP36813   8.101   9.334  10.158  0.0527  0.0614 -0.2355
10626PW      WM36814   8.137   9.465  10.299 -0.2100 -0.2013  0.1691
10627PW       W36815   8.358   7.583   9.502  0.1406  0.3096 -0.2129
10627PW      WP36816   8.381   7.693   9.586  0.0808  0.1231  0.0558
10627PW      WM36817   8.239   7.635   9.553 -0.0437 -0.7098  0.5560
10628PW       W36818   4.944   1.925  11.637  0.1788 -0.0642  0.4075
10628PW      WP36819   4.936   1.951  11.500  0.0583 -0.3325  0.3593
10628PW      WM36820   4.984   1.794  11.610 -0.0455  0.0212 -0.4847
10629PW       W36821   9.928   3.947   2.606 -0.3389  0.0095  0.1402
10629PW      WP36822   9.992   4.039   2.522 -0.0698  0.0980  0.4276
10629PW      WM36823   9.976   3.830   2.546 -0.4114  0.1758 -0.2603
10630PW       W36824   8.359   7.700   0.725 -0.1819  0.1624  0.4185
10630PW      WP36825   8.267   7.705   0.620 -0.0564 -0.1866  0.2835
10630PW      WM36826   8.413   7.571   0.730  0.5734  0.3843 -0.4498
10631PW       W36827   5.520   9.551  11.395  0.5557  0.0085  0.3342
10631PW      WP36828   5.438   9.481  11.483  0.1959 -0.3247 -0.2358
10631PW      WM36829   5.565   9.595  11.270  0.1120  0.4321  0.3096
10632PW       W36830   6.547   6.299  13.176 -0.1287  0.7327 -0.1632
10632PW      WP36831   6.453   6.218  13.239  0.7164  0.0044  0.2677
10632PW      WM36832   6.579   6.322  13.042  0.3733 -0.1761 -0.2412
10633PW       W36833   7.787   5.727   3.956  0.1839  0.0424 -0.3088
10633PW      WP36834   7.803   5.832   3.864  0.0602  0.0256 -0.3502
10633PW      WM36835   7.721   5.634   4.037 -0.4899  0.5839 -0.1809
10634PW       W36836   9.393   8.308   4.402  0.1707 -0.0337 -0.0904
10634PW      WP36837   9.528   8.345   4.401  0.1860 -0.0884 -0.3793
10634PW      WM36838   9.371   8.243   4.280  0.1507  0.0024 -0.1064
10635PW       W36839   4.839   3.210   0.599  0.2413  0.0218 -0.3672
10635PW      WP36840   4.944   3.118   0.602 -0.1712 -0.4678  0.0886
10635PW      WM36841   4.906   3.255   0.485  0.1422 -0.1849 -0.5096
10636PW       W36842  10.763   4.107   4.781  0.1541  0.2698 -0.0837
10636PW      WP36843  10.726   4.027   4.673 -0.4951  0.3998  0.0232
10636PW      WM36844  10.653   4.151   4.855  0.1242  0.1677 -0.0664
10637PW       W36845   0.833  10.389  12.154 -0.0969 -0.1500 -0.3618
10637PW      WP36846   0.973  10.379  12.148 -0.0888 -0.0017 -0.4519
10637PW      WM36847   0.781  10.311  12.258  0.0536 -0.2717 -0.3753
10638PW       W36848   0.277   1.664   8.118  0.1496 -0.1361  0.6680
10638PW      WP36849   0.250   1.530   8.152 -0.4734 -0.1211  0.3022
10638PW      WM36850   0.297   1.802   8.128 -0.0800 -0.0602  0.1978
10639PW       W36851   4.709   5.353   0.311  0.2860  0.0287  0.1499
10639PW      WP36852   4.733   5.234   0.243  0.2787  0.1627 -0.0911
10639PW      WM36853   4.571   5.332   0.315  0.2972 -0.1075 -0.1029
10640PW       W36854  10.256   1.514   4.690 -0.1736 -0.3315  0.3062
10640PW      WP36855  10.254   1.523   4.829 -0.2440  0.1302  0.2828
10640PW      WM36856  10.144   1.595   4.666  0.4069  0.4420 -0.0136
10641PW       W36857   6.933   9.019   5.228  0.0566 -0.3830 -0.0302
10641PW      WP36858   6.862   8.996   5.347  0.4503  0.2258  0.3500
10641PW      WM36859   7.058   9.023   5.290 -0.0097  0.2769  0.1004
10642PW       W36860   7.183   8.100   3.395  0.1448  0.3690  0.0378
10642PW      WP36861   7.086   8.006   3.435  0.1909  0.3744  0.1647
10642PW      WM36862   7.293   8.030   3.445 -0.0365 -0.2788 -0.3995
10643PW       W36863   6.653   2.974   1.651 -0.3997 -0.2148  0.0849
10643PW      WP36864   6.617   3.025   1.776 -0.1194  0.0889  0.0483
10643PW      WM36865   6.612   3.107   1.670 -0.4400 -0.2237  0.0624
10644PW       W36866   2.806  11.486  11.797 -0.2351  0.1005 -0.1063
10644PW      WP36867   2.881  11.380  11.744  0.1059  0.0223  0.4855
10644PW      WM36868   2.742  11.610  11.790 -0.6193 -0.0817  0.0593
10645PW       W36869   7.180   9.676  12.315  0.1367 -0.1631 -0.6661
10645PW      WP36870   7.050   9.680  12.265 -0.0823  0.3480 -0.1181
10645PW      WM36871   7.257   9.735  12.214 -0.0682  0.3343 -0.5423
10646PW       W36872   2.136   7.692   4.037 -0.0783 -0.4434  0.5231
10646PW      WP36873   2.239   7.703   4.131  0.0929 -0.2434  0.3188
10646PW      WM36874   2.015   7.632   4.002  0.0068 -0.3042 -0.0598
10647PW       W36875  10.260   1.292  11.323  0.2799 -0.3456 -0.4139
10647PW      WP36876  10.146   1.324  11.248  0.1588 -0.4414 -0.2738
10647PW      WM36877  10.130   1.239  11.327  0.1321  0.0239  0.0438
10648PW       W36878  11.656  10.444  12.651  0.1702  0.0036  0.0026
10648PW      WP36879  11.687  10.470  12.785 -0.0174  0.7980 -0.0840
10648PW      WM36880  11.539  10.430  12.576 -0.0541  0.8915  0.1257
10649PW       W36881   1.290   3.141   9.742  0.3328  0.5044  0.5971
10649PW      WP36882   1.206   3.252   9.731  0.3465  0.4594 -0.3879
10649PW      WM36883   1.426   3.160   9.767  0.4245  0.2536  0.3272
10650PW       W36884   4.629  10.494  11.876  0.1237  0.1968 -0.3258
10650PW      WP36885   4.678  10.427  11.763 -0.0131  0.1845 -0.3796
10650PW      WM36886   4.750  10.499  11.946 -0.0832 -0.7884  0.1989
10651PW       W36887   4.512  11.379   2.574 -0.1912  0.1242  0.2900
10651PW      WP36888   4.641  11.373   2.628 -0.0354  0.0265 -0.0777
10651PW      WM36889   4.392  11.315   2.605 -0.3073  0.0066 -0.3388
10652PW       W36890   0.410   6.624   9.451  0.3560 -0.1155  0.4142
10652PW      WP36891   0.400   6.758   9.409  0.2377 -0.1559  0.3117
10652PW      WM36892   0.455   6.606   9.583 -0.2347 -0.0901  0.6332
10653PW       W36893   1.318   9.396   2.573 -0.1286  0.1565  0.1386
10653PW      WP36894   1.444   9.407   2.633 -0.0168 -0.9395  0.2008
10653PW      WM36895   1.336   9.520   2.510  0.0284  0.1162  0.0995
10654PW       W36896   4.554   3.410   5.594 -0.1886 -0.0321  0.1877
10654PW      WP36897   4.438   3.481   5.559 -0.2838  0.0036  0.5475
10654PW      WM36898   4.634   3.349   5.497 -0.0203  0.2768  0.1250
10655PW       W36899   1.467   5.081   2.092  0.1326 -0.0528 -0.0836
10655PW      WP36900   1.546   5.030   1.988  0.3887  0.2580 -0.0482
10655PW      WM36901   1.398   5.175   2.015 -0.1756 -0.2687 -0.0798
10656PW       W36902  10.026   2.469   5.430 -0.1049  0.2194  0.2302
10656PW      WP36903   9.996   2.486   5.294 -0.1433 -0.1820  0.1842
10656PW      WM36904  10.164   2.454   5.410 -0.1383  0.2616 -0.0561
10657PW       W36905  11.767   6.386   2.880  0.0387  0.2291  0.0751
10657PW      WP36906  11.710   6.346   3.002 -0.0488  0.0535 -0.0223
10657PW      WM36907  11.653   6.404   2.801  0.0750  0.0079 -0.0322
10658PW       W36908  11.167   9.611  10.034  0.2980  0.2336  0.0092
10658PW      WP36909  11.060   9.606   9.944 -0.0843 -0.9658  0.4421
10658PW      WM36910  11.305   9.605  10.055  0.2168 -0.1290  0.5549
10659PW       W36911   2.539   7.253   2.476 -0.1187 -0.0163 -0.1152
10659PW      WP36912   2.459   7.337   2.397 -0.3218  0.2379  0.3465
10659PW      WM36913   2.422   7.181   2.506 -0.1681  0.0677 -0.1050
10660PW       W36914   3.542   4.943   3.432 -0.1409 -0.1808 -0.0059
10660PW      WP36915   3.475   4.822   3.452 -0.3092 -0.1713 -0.4654
10660PW      WM36916   3.506   5.070   3.479  0.2598 -0.0292 -0.0790
10661PW       W36917   3.077   6.087   0.839  0.2258 -0.3879  0.1963
10661PW      WP36918   3.012   6.126   0.721  0.2916 -0.0591  0.2638
10661PW      WM36919   3.059   6.039   0.969 -0.6759  0.3419  0.3990
10662PW       W36920   5.827  11.422   2.224  0.0661  0.1961 -0.0904
10662PW      WP36921   5.735  11.323   2.190 -0.0488  0.0988  0.4590
10662PW      WM36922   5.734  11.416   2.328  0.0627 -0.1681 -0.1081
10663PW       W36923   4.728  10.104   0.490 -0.0398 -0.2117  0.7761
10663PW      WP36924   4.733  10.244   0.481  0.3717 -0.2473 -0.0138
10663PW      WM36925   4.855  10.048   0.470 -0.2318 -0.4631  0.0870
10664PW       W36926   1.694   1.651   2.157 -0.4501 -0.6828 -0.4489
10664PW      WP36927   1.804   1.595   2.224 -0.2805  0.2776  0.1637
10664PW      WM36928   1.663   1.545   2.243  0.0941 -0.1360  0.5094
10665PW       W36929   2.522   3.849  10.681  0.1282  0.0612 -0.7249
10665PW      WP36930   2.486   3.985  10.681  0.0927  0.1122  0.5884
10665PW      WM36931   2.512   3.844  10.541  0.5848 -0.4427 -0.7554
10666PW       W36932   4.483   1.904   4.788  0.0415  0.1271  0.1977
10666PW      WP36933   4.546   1.879   4.911  0.4177 -0.2135 -0.0527
10666PW      WM36934   4.552   1.912   4.667 -0.3398  0.1063 -0.0267
10667PW       W36935  11.203  12.019   0.446 -0.0946 -0.2215  0.5767
10667PW      WP36936  11.175  11.927   0.548 -0.4686 -0.4397  0.2917
10667PW      WM36937  11.237  11.884   0.432 -0.1045 -0.1669 -0.2248
10668PW       W36938  11.746   9.118   1.708 -0.3142  0.2568  0.2613
10668PW      WP36939  11.618   9.118   1.650 -0.0470 -0.0668 -0.3877
10668PW      WM36940  11.734   9.218   1.805  0.7242  0.1229  0.5892
10669PW       W36941   0.212   3.380   5.152 -0.2071 -0.2850  0.2341
10669PW      WP36942   0.260   3.509   5.128  0.2288 -0.3762  0.5541
10669PW      WM36943   0.146   3.260   5.120 -0.5893 -0.1149  0.3514
10670PW       W36944   3.208   3.956   9.401 -0.2381 -0.3281  0.1993
10670PW      WP36945   3.223   3.971   9.540  0.0406  0.0561  0.1339
10670PW      WM36946   3.248   3.873   9.296 -0.1682  0.0883 -0.1172
10671PW       W36947   4.359   8.638  13.241  0.1803  0.0828  0.2148
10671PW      WP36948   4.443   8.534  13.281  0.1106  0.0703  0.3290
10671PW      WM36949   4.465   8.697  13.171  0.2721  0.1041  0.3713
10672PW       W36950   9.549   9.855  12.730 -0.0463 -0.0932  0.0155
10672PW      WP36951   9.640   9.954  12.691 -0.0318  0.0014  0.2811
10672PW      WM36952   9.643   9.757  12.695 -0.0540 -0.0821 -0.0362
10673PW       W36953   7.704  10.598  12.634 -0.0990 -0.2056  0.1272
10673PW      WP36954   7.726  10.721  12.570  0.0822 -0.1265  0.3376
10673PW      WM36955   7.656  10.583  12.764 -0.3010  0.2794  0.1219
10674PW       W36956   5.336   7.448   4.595 -0.0730 -0.1542  0.1389
10674PW      WP36957   5.358   7.513   4.473  0.7117 -0.3427  0.1548
10674PW      WM36958   5.306   7.560   4.674  0.1635  0.0375 -0.0313
10675PW       W36959   5.209   6.847  10.080 -0.2865  0.2131 -0.0540
10675PW      WP36960   5.348   6.829  10.074 -0.3553 -0.6245  0.1757
10675PW      WM36961   5.117   6.775  10.158 -0.0846 -0.1380 -0.1299
10676PW       W36962   5.788  10.432   9.427  0.4187  0.0192  0.1585
10676PW      WP36963   5.812  10.309   9.366 -0.4749  0.1030 -0.4473
10676PW      WM36964   5.802  10.444   9.566 -0.0091  0.4226  0.1765
10677PW       W36965   1.555   1.693  12.529  0.0573 -0.0831 -0.1136
10677PW      WP36966   1.437   1.733  12.593  0.4888  0.2378  0.5336
10677PW      WM36967   1.557   1.582  12.614  0.2422  0.0184  0.0167
10678PW       W36968   7.229   9.690   4.582  0.0863  0.2325 -0.0353
10678PW      WP36969   7.303   9.719   4.467  0.0982 -0.1047 -0.1174
10678PW      WM36970   7.251   9.554   4.559 -0.2994  0.2039 -0.2895
10679PW       W36971   4.309   3.716   4.799  0.0032  0.5060  0.4199
10679PW      WP36972   4.318   3.595   4.870 -0.0541 -0.1489 -0.5809
10679PW      WM36973   4.299   3.817   4.702 -0.0418 -0.0657 -0.2114
10680PW       W36974   7.308   7.048  11.093  0.2072  0.4601 -0.3517
10680PW      WP36975   7.444   7.080  11.097  0.2462  0.2671  0.0096
10680PW      WM36976   7.197   6.967  11.123  0.5960  0.0288 -0.0036
10681PW       W36977  10.910   2.924  11.127 -0.0549  0.0594  0.6194
10681PW      WP36978  10.825   2.834  11.061  0.4346 -0.1289  0.2158
10681PW      WM36979  10.965   2.925  11.256 -0.2105 -0.8178  0.7274
10682PW       W36980   6.023   3.102   8.532  0.1091  0.1589  0.0436
10682PW      WP36981   6.130   3.151   8.607  0.3166  0.1518 -0.2381
10682PW      WM36982   6.068   3.114   8.399 -0.1614 -0.1373 -0.0807
10683PW       W36983   7.326   2.787   3.768 -0.2542  0.3058 -0.0532
10683PW      WP36984   7.271   2.699   3.861  0.0036  0.3623  0.1603
10683PW      WM36985   7.452   2.771   3.708 -0.4738 -0.2711 -0.4036
10684PW       W36986   6.075   9.740  10.116  0.2371 -0.1568 -0.2772
10684PW      WP36987   6.202   9.733  10.059  0.2019  0.3023 -0.4370
10684PW      WM36988   5.958   9.814  10.091  0.3504  0.1401  0.0444
10685PW       W36989  10.474   7.393   2.692 -0.1638  0.3045  0.1412
10685PW      WP36990  10.509   7.414   2.825 -0.2017  0.1544  0.1758
10685PW      WM36991  10.340   7.424   2.718 -0.2924 -0.1518  0.0682
10686PW       W36992   5.915   2.668  11.883  0.0289  0.3010  0.0460
10686PW      WP36993   5.854   2.637  11.761 -0.5160 -0.2584  0.4330
10686PW      WM36994   5.800   2.735  11.927  0.0755  0.2027  0.3317
10687PW       W36995   5.572   7.804   2.852 -0.1926 -0.0021  0.4085
10687PW      WP36996   5.562   7.940   2.882  0.5758  0.0925  0.3440
10687PW      WM36997   5.596   7.804   2.714 -0.1252 -0.4117  0.4133
10688PW       W36998   0.554  11.644  11.762 -0.3233 -0.1935  0.1977
10688PW      WP36999   0.643  11.635  11.870  0.1099  0.1500 -0.1110
10688PW      WM37000   0.640  11.664  11.654 -0.3553 -0.1190  0.1861
10689PW       W37001   2.080  11.886  13.353 -0.0852 -0.2264  0.5340
10689PW      WP37002   2.135  11.955  13.462  0.2083 -0.2559  0.4097
10689PW      WM37003   2.159  11.828  13.252  0.3561  0.7408  0.2584
10690PW       W37004   3.572   1.248   1.124 -0.3061 -0.1734 -0.1203
10690PW      WP37005   3.608   1.160   1.022 -0.5804 -0.0756 -0.3063
10690PW      WM37006   3.637   1.202   1.240  0.4926  0.6475 -0.1820
10691PW       W37007   6.718   4.011   0.769 -0.0991  0.1118  0.4211
10691PW      WP37008   6.616   3.938   0.708  0.0030  0.4211 -0.1533
10691PW      WM37009   6.737   3.875   0.743  0.4101  0.2854 -0.2506
10692PW       W37010   9.470   7.417  10.762  0.3682 -0.0145 -0.4739
10692PW      WP37011   9.541   7.488  10.859 -0.1669 -0.0550 -0.0232
10692PW      WM37012   9.402   7.539  10.748  0.0148 -0.0242  0.6495
10693PW       W37013   3.558   9.006   1.401  0.4243 -0.1742  0.2976
10693PW      WP37014   3.424   9.047   1.405  0.4687  0.0492 -0.2070
10693PW      WM37015   3.647   8.977   1.297  0.2868  0.2796  0.0393
10694PW       W37016   8.208   6.267   2.328  0.0043 -0.0124 -0.0351
10694PW      WP37017   8.207   6.318   2.197 -0.2883 -0.0109 -0.0350
10694PW      WM37018   8.300   6.195   2.251  0.0419  0.0910 -0.0880
10695PW       W37019   0.087   2.438   2.415 -0.1907 -0.1932 -0.2448
10695PW      WP37020  -0.029   2.475   2.346 -0.3902 -0.5629 -0.1253
10695PW      WM37021   0.077   2.415   2.277 -0.0665 -0.1366 -0.2643
10696PW       W37022   6.731  11.259  10.267 -0.2081 -0.1567 -0.1509
10696PW      WP37023   6.779  11.167  10.361 -0.3086  0.2901  0.3623
10696PW      WM37024   6.595  11.285  10.252 -0.1851 -0.0277 -0.1385
10697PW       W37025   2.723   8.578   4.291  0.0794  0.2992 -0.1057
10697PW      WP37026   2.783   8.682   4.363  0.0311  0.3736 -0.1713
10697PW      WM37027   2.658   8.496   4.384  0.0577  0.0484 -0.3400
10698PW       W37028   7.401   4.179   4.084 -0.0117 -0.0864  0.0347
10698PW      WP37029   7.500   4.264   4.036 -0.1617  0.1448  0.1238
10698PW      WM37030   7.457   4.130   4.203  0.2887  0.4760  0.1387
10699PW       W37031   0.108   7.189   4.474 -0.4286  0.3624 -0.1912
10699PW      WP37032   0.215   7.270   4.436  0.1275  0.0991  0.6613
10699PW      WM37033   0.147   7.077   4.548 -0.1436  0.5831  0.0039
10700PW       W37034   4.230   9.798   8.809 -0.2083  0.1500 -0.0221
10700PW      WP37035   4.112   9.822   8.880 -0.3566 -0.3572 -0.0750
10700PW      WM37036   4.243   9.680   8.734  0.1245  0.0137  0.2362
10701PW       W37037   0.735   6.381   3.128 -0.2358  0.1647  0.1427
10701PW      WP37038   0.857   6.387   3.059 -0.0347  0.1921  0.4904
10701PW      WM37039   0.645   6.464   3.060 -0.3934  0.1043  0.2755
10702PW       W37040   6.265   7.150  12.832  0.0525  0.0438 -0.1833
10702PW      WP37041   6.241   7.012  12.840 -0.2550  0.1145  0.4961
10702PW      WM37042   6.332   7.234  12.921 -0.0050  0.2959 -0.3735
10703PW       W37043   5.383   7.351   1.737  0.1418 -0.0165  0.0098
10703PW      WP37044   5.511   7.307   1.773  0.2710  0.1442 -0.2380
10703PW      WM37045   5.363   7.488   1.761 -0.1487  0.0876 -0.7126
10704PW       W37046  11.361   1.800   4.203 -0.2192 -0.1351  0.1651
10704PW      WP37047  11.334   1.674   4.257 -0.4590 -0.0589  0.2287
10704PW      WM37048  11.388   1.867   4.323 -0.3304  0.3386 -0.0618
10705PW       W37049   4.681  11.501   9.960 -0.0480 -0.2482  0.1375
10705PW      WP37050   4.807  11.455   9.917 -0.1558 -0.1144 -0.3614
10705PW      WM37051   4.621  11.518   9.835  0.2768  0.1634  0.0239
10706PW       W37052   6.341  -0.039   1.592  0.0137  0.1307  0.2252
10706PW      WP37053   6.432   0.021   1.505  0.0244  0.1410  0.2437
10706PW      WM37054   6.323   0.082   1.661  0.1854  0.2132  0.1274
10707PW       W37055   4.162   5.973   8.943  0.1347 -0.2133  0.0652
10707PW      WP37056   4.293   6.017   8.968  0.1016  0.1244 -0.3175
10707PW      WM37057   4.049   6.013   9.015  0.3497  0.3989  0.0889
10708PW       W37058  11.100   7.325   3.352  0.0586  0.2641 -0.4987
10708PW      WP37059  11.213   7.255   3.397  0.0126  0.2360 -0.4254
10708PW      WM37060  11.086   7.195   3.303 -0.3570 -0.0221  0.2864
10709PW       W37061  11.574  10.178  12.249 -0.1939  0.0016  0.0184
10709PW      WP37062  11.698  10.155  12.309 -0.1444 -0.4373 -0.2322
10709PW      WM37063  11.581  10.070  12.337  0.0771  0.0559  0.0692
10710PW       W37064   4.918  10.019  12.508  0.2823 -0.0881 -0.1989
10710PW      WP37065   4.866   9.999  12.379  0.2341  0.0221 -0.1973
10710PW      WM37066   4.894  10.018  12.646 -0.2252  0.0120 -0.2778
10711PW       W37067   0.690   8.299   0.951 -0.0815  0.0789  0.1795
10711PW      WP37068   0.812   8.367   0.952  0.0463 -0.1196 -0.2936
10711PW      WM37069   0.553   8.314   0.930 -0.0544  0.0490 -0.0322
10712PW       W37070  11.826   6.828   1.658  0.3295 -0.2486 -0.1823
10712PW      WP37071  11.706   6.893   1.628  0.2119 -0.1731  0.3955
10712PW      WM37072  11.931   6.889   1.590  0.1524 -0.1136 -0.3390
10713PW       W37073   8.416  11.856   4.092  0.2969  0.1210 -0.3474
10713PW      WP37074   8.351  11.891   3.973  0.3228  0.2413 -0.3273
10713PW      WM37075   8.426  11.824   4.228 -0.2694  0.2606 -0.2632
10714PW       W37076   0.290   3.161   1.945  0.3957 -0.4003 -0.1655
10714PW      WP37077   0.297   3.030   1.895 -0.0020 -0.4519 -0.1071
10714PW      WM37078   0.198   3.078   1.879 -0.3075  0.2056 -0.0146
10715PW       W37079   2.857   7.803  10.783  0.2553 -0.7277 -0.0503
10715PW      WP37080   2.946   7.823  10.888 -0.1140  0.8111  0.0834
10715PW      WM37081   2.945   7.912  10.776 -0.5127 -0.0259  0.3446
10716PW       W37082   0.683   4.781   4.706  0.1821  0.2234  0.5163
10716PW      WP37083   0.561   4.747   4.764 -0.1400  0.2135 -0.1187
10716PW      WM37084   0.805   4.713   4.711 -0.2067 -0.6498 -0.3248
10717PW       W37085   6.184  10.389  11.274  0.0548  0.1794  0.1203
10717PW      WP37086   6.103  10.475  11.200 -0.2950  0.1018  0.4001
10717PW      WM37087   6.260  10.506  11.279  0.4263 -0.0575  0.3718
10718PW       W37088   7.625   6.071  11.475  0.6273 -0.2494 -0.3223
10718PW      WP37089   7.755   6.120  11.491  0.3662  0.4322 -0.1184
10718PW      WM37090   7.544   6.077  11.361  0.2802 -0.2839 -0.0843
10719PW       W37091   5.401   0.916  10.241 -0.1482 -0.1890  0.0513
10719PW      WP37092   5.500   0.922  10.141  0.3356 -0.5735  0.4773
10719PW      WM37093   5.307   1.017  10.262  0.3245  0.2887 -0.0010
10720PW       W37094   0.887   0.699   0.097  0.1345 -0.0630 -0.0415
10720PW      WP37095   0.944   0.820   0.055  0.1630 -0.1635 -0.3059
10720PW      WM37096   1.022   0.731   0.083  0.2118 -0.2337  0.2734
10721PW       W37097   7.646   1.990   3.266  0.0182 -0.2735  0.1243
10721PW      WP37098   7.609   1.903   3.163  0.1653 -0.0676 -0.1069
10721PW      WM37099   7.732   2.099   3.252 -0.2121 -0.1501 -0.4497
10722PW       W37100   0.356   5.773  10.099  0.1923 -0.1046 -0.4568
10722PW      WP37101   0.480   5.759  10.035  0.3686 -0.3706 -0.0783
10722PW      WM37102   0.389   5.709  10.219  0.4195  0.4526 -0.2004
10723PW       W37103  10.156   8.510   8.731 -0.0870  0.2268  0.2564
10723PW      WP37104  10.238   8.602   8.797 -0.4814  0.6434  0.1900
10723PW      WM37105  10.033   8.573   8.712 -0.1869  0.0725  0.3837
10724PW       W37106   7.324   0.714   5.034  0.1240  0.0077  0.0920
10724PW      WP37107   7.194   0.680   5.075 -0.0261  0.1378 -0.2558
10724PW      WM37108   7.338   0.850   5.007 -0.9275  0.0898 -0.2840
10725PW       W37109  10.435   9.348  12.653 -0.2955  0.0206 -0.2795
10725PW      WP37110  10.528   9.346  12.549  0.0538 -0.1092  0.0204
10725PW      WM37111  10.458   9.473  12.712 -0.0742 -0.0328 -0.2482
10726PW       W37112  10.159   1.801   0.576  0.1781 -0.1939 -0.3422
10726PW      WP37113  10.227   1.923   0.576 -0.2382  0.0463 -0.2275
10726PW      WM37114  10.032   1.819   0.632  0.3954  0.2227  0.0489
10727PW       W37115   0.932   7.935   4.578 -0.2254 -0.0508 -0.1138
10727PW      WP37116   1.006   8.048   4.540 -0.4302  0.2186  0.2538
10727PW      WM37117   0.845   7.910   4.685 -0.1004  0.4318  0.1184
10728PW       W37118   9.134   7.608  12.553  0.0159 -0.4674  0.0213
10728PW      WP37119   9.228   7.625  12.451 -0.3013 -0.2264 -0.2394
10728PW      WM37120   9.108   7.738  12.596  0.0495 -0.3519 -0.2938
10729PW       W37121   6.586   8.086   4.671 -0.0237  0.5102  0.1142
10729PW      WP37122   6.609   8.010   4.787 -0.1740  0.5034  0.1407
10729PW      WM37123   6.646   7.980   4.601 -0.1487  0.2833  0.3410
10730PW       W37124  10.447   7.000  13.272  0.5028 -0.4547 -0.4295
10730PW      WP37125  10.477   7.075  13.159  0.2841 -0.2735 -0.3717
10730PW      WM37126  10.370   6.888  13.306 -0.1440  0.1373  0.2459
10731PW       W37127   9.235   0.721  11.681 -0.0669  0.6684  0.1777
10731PW      WP37128   9.221   0.812  11.575 -0.0872  0.2639 -0.1828
10731PW      WM37129   9.271   0.767  11.808  0.2544  0.1946  0.2700
10732PW       W37130   9.971   4.058   1.096 -0.1002 -0.2427  0.3419
10732PW      WP37131   9.986   3.932   1.036  0.4946  0.1301 -0.3785
10732PW      WM37132   9.954   4.040   0.958 -0.1589  0.0021  0.3148
10733PW       W37133   8.794   5.900   1.330  0.6099 -0.2432 -0.3811
10733PW      WP37134   8.754   5.944   1.204  0.1474  0.1337 -0.1168
10733PW      WM37135   8.803   5.783   1.406 -0.2603 -0.2718 -0.2706
10734PW       W37136   4.889   4.528   4.192 -0.1528 -0.2260 -0.0352
10734PW      WP37137   4.940   4.548   4.321 -0.0342  0.2684 -0.1486
10734PW      WM37138   5.021   4.528   4.147 -0.1517  0.5251 -0.0994
10735PW       W37139   9.884  10.779  10.035  0.6130 -0.0980  0.4523
10735PW      WP37140   9.950  10.687   9.954  0.0811 -0.2006  0.1144
10735PW      WM37141   9.845  10.687  10.134  0.1769 -0.2943  0.1136
10736PW       W37142   0.305   1.419   9.327  0.3094  0.5074  0.2162
10736PW      WP37143   0.187   1.430   9.254  0.1697  0.0354  0.3543
10736PW      WM37144   0.391   1.338   9.403  0.0818  0.0451  0.0057
10737PW       W37145   7.735   2.364   8.766 -0.1432 -0.0560 -0.1116
10737PW      WP37146   7.634   2.295   8.698 -0.0987  0.0801 -0.3234
10737PW      WM37147   7.794   2.258   8.835  0.0781  0.1340 -0.0003
10738PW       W37148   0.636   2.425   8.826  0.1179 -0.1732  0.1210
10738PW      WP37149   0.610   2.511   8.718  0.2906 -0.2119  0.0467
10738PW      WM37150   0.508   2.372   8.809  0.1572 -0.2748  0.1372
10739PW       W37151   3.539   6.665   1.025 -0.2460  0.1257  0.4697
10739PW      WP37152   3.515   6.528   1.008 -0.3601  0.1048  0.7700
10739PW      WM37153   3.434   6.741   0.971 -0.0807  0.0857  0.0720
10740PW       W37154   9.924   9.020   3.607  0.0625 -0.2110  0.1810
10740PW      WP37155  10.043   9.020   3.681  0.1940 -0.5147 -0.0173
10740PW      WM37156   9.927   8.880   3.598 -0.1696 -0.1977 -0.2532
10741PW       W37157   1.193  11.037   0.752 -0.3429 -0.1464 -0.1116
10741PW      WP37158   1.066  11.036   0.811 -0.0674 -0.0522  0.5192
10741PW      WM37159   1.300  10.966   0.806 -0.2327 -0.1406 -0.3187
10742PW       W37160  11.796   8.314  11.389 -0.0260 -0.1557 -0.0161
10742PW      WP37161  11.736   8.237  11.289  0.3425 -0.2823 -0.1504
10742PW      WM37162  11.702   8.401  11.335 -0.1257 -0.2252  0.0444
10743PW       W37163   5.669   7.924   9.689 -0.2976 -0.0837 -0.2866
10743PW      WP37164   5.786   7.940   9.613 -0.1753  0.0209 -0.0811
10743PW      WM37165   5.585   7.812   9.689 -0.3868 -0.0186 -0.1243
10744PW       W37166   6.094   7.231  11.369  0.3969  0.2163  0.0385
10744PW      WP37167   6.203   7.191  11.447  0.5177  0.2276 -0.1211
10744PW      WM37168   6.042   7.360  11.372  0.2973  0.1727  0.3541
10745PW       W37169   2.061   0.735   3.719  0.0060 -0.3034 -0.0518
10745PW      WP37170   2.067   0.610   3.781  0.3344 -0.2424  0.0467
10745PW      WM37171   2.162   0.770   3.629  0.2674  0.0888  0.3724
10746PW       W37172   3.372   3.147   4.515  0.1112 -0.1569  0.5761
10746PW      WP37173   3.322   3.261   4.579 -0.0103 -0.0407  0.2839
10746PW      WM37174   3.292   3.036   4.543 -0.8375  0.1791 -0.4321
10747PW       W37175   7.102  10.229   2.777 -0.3921  0.1689 -0.0557
10747PW      WP37176   7.084  10.121   2.690 -0.1880 -0.1315  0.2606
10747PW      WM37177   7.168  10.305   2.679 -0.2772  0.2258  0.0634
10748PW       W37178   5.722  10.922   2.990  0.0120 -0.0152 -0.1462
10748PW      WP37179   5.781  10.869   2.875  0.1152 -1.0520  0.3304
10748PW      WM37180   5.762  11.055   3.011 -0.7285  0.2069  0.0132
10749PW       W37181  10.792   7.475   0.028 -0.2366 -0.3571  0.5716
10749PW      WP37182  10.831   7.368   0.109  0.0493 -0.5532  0.1918
10749PW      WM37183  10.758   7.607  -0.004  0.5510 -0.1557  0.4569
10750PW       W37184   0.935   5.022   2.091  0.1037  0.0596  0.2623
10750PW      WP37185   0.812   4.970   2.133  0.0913  0.1477  0.3374
10750PW      WM37186   0.895   5.133   2.167  0.1160  0.2371  0.0148
10751PW       W37187   4.822  10.696   2.314 -0.3211 -0.1855 -0.1390
10751PW      WP37188   4.815  10.564   2.269  0.0591 -0.1824 -0.2209
10751PW      WM37189   4.699  10.762   2.325 -0.4219 -0.4213  0.2520
10752PW       W37190   2.313   9.005  10.139 -0.2868 -0.3084  0.0523
10752PW      WP37191   2.189   9.060  10.103 -0.1131  0.1715  0.1461
10752PW      WM37192   2.353   9.066  10.258 -0.4087  0.1653 -0.1357
10753PW       W37193   1.563   8.001  11.015  0.0044  0.2256 -0.1630
10753PW      WP37194   1.514   7.956  10.891  0.2359  0.3964 -0.3220
10753PW      WM37195   1.532   8.098  10.918 -0.0790  0.4938  0.1223
10754PW       W37196  11.455   5.460  11.775 -0.0398  0.2619 -0.3411
10754PW      WP37197  11.559   5.442  11.867 -0.1145  0.1192 -0.2837
10754PW      WM37198  11.320   5.490  11.753 -0.3232 -0.1979  0.5192
10755PW       W37199   4.664   5.645  13.011 -0.0376  0.1005  0.1104
10755PW      WP37200   4.764   5.654  12.913  0.0464 -0.1791  0.1650
10755PW      WM37201   4.545   5.685  12.950 -0.0789 -0.1967 -0.0087
10756PW       W37202  10.498   2.167  10.414  0.4541 -0.1325 -0.1220
10756PW      WP37203  10.530   2.110  10.290  0.4550 -0.5171  0.0492
10756PW      WM37204  10.620   2.223  10.455  0.4213 -0.0956 -0.0750
10757PW       W37205   2.272   7.300   1.105  0.1508 -0.1981 -0.1653
10757PW      WP37206   2.151   7.309   1.036  0.0369  0.3127  0.0776
10757PW      WM37207   2.351   7.230   1.198 -0.2957  0.1534  0.5254
10758PW       W37208   6.591   3.860   1.738 -0.2031 -0.4893 -0.1198
10758PW      WP37209   6.706   3.786   1.706  0.2839  0.2383 -0.1804
10758PW      WM37210   6.512   3.905   1.632  0.4262  0.2625 -0.3165
10759PW       W37211   7.928   1.966   1.519  0.1387 -0.2220  0.0047
10759PW      WP37212   8.001   1.921   1.629  0.5805 -0.4431 -0.3603
10759PW      WM37213   8.028   1.923   1.431  0.3565  0.4189 -0.0952
10760PW       W37214  10.851  10.673   8.580 -0.0760  0.3042 -0.1326
10760PW      WP37215  10.938  10.737   8.668  0.0326 -0.2043  0.1538
10760PW      WM37216  10.793  10.617   8.695  0.0909  0.1419 -0.1241
10761PW       W37217  10.101   1.748   4.288  0.2019 -0.1836  0.6424
10761PW      WP37218   9.974   1.690   4.280  0.1648 -0.0602 -0.3440
10761PW      WM37219  10.176   1.866   4.279  0.2209 -0.2243 -0.3123
10762PW       W37220   7.996  10.727  11.265  0.0141  0.0918  0.0962
10762PW      WP37221   8.084  10.651  11.188  0.0504 -0.1971  0.4157
10762PW      WM37222   7.958  10.786  11.143  0.0793  0.3457  0.1943
10763PW       W37223  10.761   5.207   3.967 -0.4840  0.1420  0.1662
10763PW      WP37224  10.784   5.341   4.002  0.3283  0.1693 -0.3462
10763PW      WM37225  10.718   5.094   4.038 -0.5365  0.3305  0.4429
10764PW       W37226  12.135   4.981   0.078 -0.3026  0.1283  0.2096
10764PW      WP37227  12.146   5.002   0.216 -0.3573 -0.1782  0.2635
10764PW      WM37228  12.086   4.862   0.023  0.4195 -0.2297  0.2803
10765PW       W37229   7.599   6.071   9.743  0.0029  0.1777 -0.7307
10765PW      WP37230   7.471   6.119   9.711 -0.2917 -0.4475 -0.5782
10765PW      WM37231   7.585   5.958   9.661 -0.3616 -0.1999 -0.1858
10766PW       W37232   8.472   8.222   5.606 -0.0672  0.2922  0.2126
10766PW      WP37233   8.346   8.165   5.632 -0.0032  0.2525  0.4482
10766PW      WM37234   8.504   8.257   5.738  0.4394  0.0874  0.1532
10767PW       W37235   7.992   6.755   3.559 -0.3196  0.4092  0.0578
10767PW      WP37236   7.878   6.836   3.553 -0.6055  0.0424  0.2628
10767PW      WM37237   8.132   6.751   3.552 -0.3312  0.1262 -0.0815
10768PW       W37238   6.369   7.116   9.377 -0.1928  0.2890  0.2777
10768PW      WP37239   6.498   7.105   9.430 -0.1156  0.0179  0.0453
10768PW      WM37240   6.262   7.029   9.401 -0.4071  0.4528 -0.0492
10769PW       W37241   4.084   3.347   0.541 -0.1321  0.0331 -0.0914
10769PW      WP37242   4.050   3.457   0.462  0.4890  0.1866 -0.1641
10769PW      WM37243   4.084   3.325   0.680 -0.0173 -0.0127 -0.0983
10770PW       W37244  10.755   6.881   8.314 -0.9063 -0.2010  0.1326
10770PW      WP37245  10.769   6.787   8.212  0.4602  0.0659 -0.0191
10770PW      WM37246  10.736   6.751   8.267  0.1607 -0.4333  0.2347
10771PW       W37247   7.510   3.227   1.558 -0.1941 -0.3655 -0.0626
10771PW      WP37248   7.609   3.249   1.462 -0.0787  0.0764  0.1433
10771PW      WM37249   7.432   3.170   1.659 -0.5868  0.1949 -0.0269
10772PW       W37250   3.093   0.607   2.254 -0.0833 -0.0704 -0.2726
10772PW      WP37251   3.150   0.484   2.221 -0.0849 -0.1128 -0.1214
10772PW      WM37252   3.026   0.686   2.160 -0.0782  0.4098  0.1103
10773PW       W37253  12.047  10.256   9.189  0.6380 -0.1698 -0.3145
10773PW      WP37254  12.165  10.284   9.119  0.3313  0.1227 -0.7359
10773PW      WM37255  12.062  10.125   9.144 -0.0075 -0.3626 -0.0280
10774PW       W37256   5.741   6.694   3.015 -0.2611  0.4422  0.3123
10774PW      WP37257   5.829   6.708   3.123 -0.1654 -0.5095  0.4003
10774PW      WM37258   5.840   6.769   2.950  0.0192 -0.2879 -0.1677
10775PW       W37259   3.241   7.196   2.331  0.2555  0.0473 -0.1015
10775PW      WP37260   3.374   7.176   2.293  0.3664  0.0151  0.2753
10775PW      WM37261   3.205   7.126   2.447  0.2153  0.0749 -0.0970
10776PW       W37262  11.796   8.861  11.902 -0.5819  0.1231 -0.2840
10776PW      WP37263  11.758   8.830  11.771  0.2856 -0.2764 -0.4749
10776PW      WM37264  11.917   8.899  11.961 -0.1302 -1.0910 -0.2821
10777PW       W37265   9.268   8.000   1.768  0.2181  0.1235  0.1922
10777PW      WP37266   9.271   7.891   1.856 -0.0061 -0.1143 -0.0819
10777PW      WM37267   9.193   8.118   1.764  0.0390  0.0057 -0.1661
10778PW       W37268   4.003   9.028   4.672 -0.0601 -0.3715 -0.5812
10778PW      WP37269   4.068   8.969   4.781 -0.6097  0.1779  0.0916
10778PW      WM37270   3.985   9.156   4.618 -0.5293 -0.2601 -0.1896
10779PW       W37271   8.666   8.652  11.980  0.1623  0.0723  0.1419
10779PW      WP37272   8.675   8.773  12.049  0.0039  0.0816  0.1496
10779PW      WM37273   8.738   8.689  11.865  0.4240  0.0507  0.2956
10780PW       W37274  11.503   9.968   3.067  0.0234 -0.2148  0.4469
10780PW      WP37275  11.601  10.060   3.104 -0.0286  0.2325 -0.4136
10780PW      WM37276  11.555   9.859   2.997 -0.5990 -0.1855 -0.1063
10781PW       W37277   5.267   9.017   1.187  0.6079 -0.0518 -0.0948
10781PW      WP37278   5.212   9.051   1.062  0.0219  0.0000  0.1647
10781PW      WM37279   5.195   9.077   1.290  0.1474 -0.2242 -0.3014
10782PW       W37280  10.322   6.473   4.694 -0.3047 -0.0956 -0.0313
10782PW      WP37281  10.312   6.592   4.768  0.3776 -0.1905  0.2552
10782PW      WM37282  10.292   6.414   4.817  0.2415 -0.4042 -0.0318
10783PW       W37283   0.772   8.431   2.413  0.6636  0.0322  0.6762
10783PW      WP37284   0.876   8.351   2.363  0.0524 -0.4390  0.0687
10783PW      WM37285   0.644   8.382   2.443  0.4444  0.0611 -0.1197
10784PW       W37286   9.795   1.808   9.405  0.2816 -0.0912  0.2072
10784PW      WP37287   9.813   1.933   9.343 -0.2180  0.2046  0.6120
10784PW      WM37288   9.728   1.828   9.283  0.1834 -0.3009  0.2249
10785PW       W37289  11.251   7.753  12.291  0.6220  0.0183 -0.6037
10785PW      WP37290  11.183   7.851  12.218 -0.0882 -0.0789 -0.1218
10785PW      WM37291  11.337   7.647  12.321  0.3932 -0.1298 -0.4512
10786PW       W37292   9.932  10.926   3.809 -0.0451  0.1155  0.0422
10786PW      WP37293  10.067  10.902   3.779 -0.0341 -0.1463  0.2778
10786PW      WM37294   9.823  10.863   3.872 -0.2547  0.7721  0.3808
10787PW       W37295   1.309   2.605   9.982 -0.1338  0.1942  0.0781
10787PW      WP37296   1.370   2.729  10.004  0.0436  0.1231 -0.0100
10787PW      WM37297   1.394   2.563   9.879 -0.3841  0.5556 -0.2951
10788PW       W37298   8.673   4.451   9.183 -0.6823  0.1159  0.5283
10788PW      WP37299   8.599   4.449   9.064  0.4188 -0.1732 -0.2367
10788PW      WM37300   8.704   4.575   9.240 -0.0021  0.3387 -0.2169
10789PW       W37301  11.373   0.373   0.515 -0.0045  0.4286  0.1152
10789PW      WP37302  11.388   0.262   0.598 -0.1501  0.1535 -0.2133
10789PW      WM37303  11.306   0.424   0.403 -0.0920 -0.1596 -0.1194
10790PW       W37304   6.503   8.200   2.651  0.4822 -0.5062 -0.0700
10790PW      WP37305   6.588   8.181   2.761  0.3911 -0.1936  0.0607
10790PW      WM37306   6.460   8.123   2.543 -0.1161  0.0687 -0.2762
10791PW       W37307   8.438  11.870   3.583 -0.1109  0.1351 -0.0435
10791PW      WP37308   8.446  11.994   3.518 -0.1149  0.0285 -0.2505
10791PW      WM37309   8.327  11.862   3.498  0.0934  0.0578 -0.3077
10792PW       W37310   3.753  10.364   3.324  0.0920  0.0377  0.0285
10792PW      WP37311   3.638  10.429   3.277 -0.3781 -0.5460  0.3005
10792PW      WM37312   3.774  10.292   3.205  0.1562  0.1475 -0.0273
10793PW       W37313   0.076   1.884   3.287  0.0566 -0.2084  0.2445
10793PW      WP37314  -0.058   1.848   3.274 -0.0955  0.3988 -0.0815
10793PW      WM37315   0.047   1.922   3.419  0.3526 -0.5243  0.4084
10794PW       W37316   3.905  10.832   8.164  0.0911 -0.2423  0.3769
10794PW      WP37317   3.813  10.806   8.266 -0.4178  0.3303  0.0992
10794PW      WM37318   4.028  10.871   8.218  0.1479  0.0079  0.0792
10795PW       W37319   0.998  12.144  12.796  0.1568  0.2668 -0.0099
10795PW      WP37320   0.995  12.004  12.810  0.1380  0.2306 -0.3245
10795PW      WM37321   0.935  12.191  12.680 -0.5784 -0.4069  0.0692
10796PW       W37322  10.172   7.608  11.116  0.2609  0.3041 -0.3280
10796PW      WP37323  10.172   7.606  10.976  0.1380 -0.2041 -0.3269
10796PW      WM37324  10.215   7.515  11.211 -0.1744  0.0310 -0.3845
10797PW       W37325   0.148   2.288  10.372 -0.3133 -0.0908 -0.0453
10797PW      WP37326   0.184   2.259  10.504 -0.3592  0.0550 -0.0004
10797PW      WM37327   0.108   2.418  10.338 -0.1279 -0.1208 -0.4108
10798PW       W37328   0.776   5.480  11.949  0.0766  0.3400  0.1134
10798PW      WP37329   0.737   5.367  12.020  0.2940  0.2403  0.0780
10798PW      WM37330   0.638   5.466  11.966  0.1427 -0.1023  0.3559
10799PW       W37331   2.624   1.066  11.948 -0.0185 -0.0845  0.1561
10799PW      WP37332   2.493   1.092  11.908 -0.0295 -0.1132  0.1733
10799PW      WM37333   2.657   1.108  12.077  0.4619  0.2966 -0.0709
10800PW       W37334   1.418   7.495   0.637  0.1613 -0.4001 -0.1552
10800PW      WP37335   1.515   7.593   0.619 -0.3948  0.1929 -0.1181
10800PW      WM37336   1.482   7.575   0.542 -0.0586  0.1970  0.1718
10801PW       W37337   7.291   2.910  12.445 -0.1049 -0.3923  0.1020
10801PW      WP37338   7.262   2.810  12.539 -0.2557  0.1542  0.6631
10801PW      WM37339   7.205   2.998  12.379 -0.2964 -0.6920 -0.0640
10802PW       W37340   2.326   5.603  12.578  0.2121 -0.2819 -0.4906
10802PW      WP37341   2.415   5.603  12.686 -0.0349  0.0928 -0.2712
10802PW      WM37342   2.259   5.702  12.505  0.1231  0.1261  0.1058
10803PW       W37343   3.798   1.985   0.647  0.1202 -0.3548 -0.1858
10803PW      WP37344   3.720   2.050   0.743  0.4482 -0.0081 -0.1430
10803PW      WM37345   3.754   1.936   0.770  0.0427 -0.4447 -0.2489
10804PW       W37346  11.301  11.081   3.671 -0.2807 -0.0036  0.0596
10804PW      WP37347  11.382  11.007   3.757 -0.0912  0.2397  0.0932
10804PW      WM37348  11.271  11.097   3.535  0.3890  0.1012 -0.0935
10805PW       W37349  11.269   5.758  10.116 -0.4370  0.4821  0.2860
10805PW      WP37350  11.131   5.736  10.109 -0.3249 -0.3166  0.0736
10805PW      WM37351  11.301   5.810   9.990  0.0922 -0.1053  0.1574
10806PW       W37352   2.874   6.149   9.984  0.1911  0.2131  0.0435
10806PW      WP37353   2.782   6.049   9.950  0.0454  0.2502  0.3158
10806PW      WM37354   2.966   6.127  10.087 -0.1548 -0.2543  0.2701
10807PW       W37355   5.656  11.013   9.103  0.2470  0.0571  0.2711
10807PW      WP37356   5.633  11.068   8.976  0.4198 -0.1111  0.1643
10807PW      WM37357   5.626  10.988   8.969  0.2265  0.4090  0.2039
10808PW       W37358   3.247   9.748   3.080  0.0309 -0.4250 -0.0772
10808PW      WP37359   3.284   9.744   2.945 -0.1742 -0.3982 -0.1372
10808PW      WM37360   3.223   9.859   3.162 -0.0987 -0.2974 -0.2811
10809PW       W37361   8.146   1.397  12.812  0.1356 -0.0879  0.1523
10809PW      WP37362   8.101   1.526  12.777  0.5963  0.0025 -0.1458
10809PW      WM37363   8.132   1.310  12.920  0.3569  0.1246  0.3570
10810PW       W37364   9.056   4.817   1.919  0.1288  0.1184 -0.0080
10810PW      WP37365   9.001   4.779   1.797  0.2263  0.1799 -0.0720
10810PW      WM37366   9.144   4.749   1.834 -0.1974 -0.0204 -0.2452
10811PW       W37367   7.755   4.378   3.810  0.0399 -0.1038 -0.4023
10811PW      WP37368   7.716   4.513   3.811 -0.4534 -0.2272  0.2065
10811PW      WM37369   7.690   4.296   3.903  0.3548  0.0415 -0.0389
10812PW       W37370   8.265   3.762   9.494 -0.2141 -0.3236  0.4228
10812PW      WP37371   8.306   3.892   9.527  0.3424 -0.3476 -0.0806
10812PW      WM37372   8.144   3.830   9.510 -0.0584  0.0473  0.1194
10813PW       W37373   3.672   6.134  13.034 -0.4768  0.2967 -0.2758
10813PW      WP37374   3.599   6.055  13.123 -0.1399 -0.0044 -0.2538
10813PW      WM37375   3.714   6.065  12.919  0.2782  0.5483 -0.1785
10814PW       W37376  10.051   6.330  13.326 -0.1594 -0.0895 -0.4814
10814PW      WP37377  10.074   6.457  13.271  0.1074 -0.0827 -0.3579
10814PW      WM37378  10.124   6.217  13.364  0.0210  0.0517 -0.3996
10815PW       W37379   9.350   6.008   9.593 -0.4521  0.0069  0.1156
10815PW      WP37380   9.330   5.960   9.723 -0.0761  0.2087  0.2566
10815PW      WM37381   9.363   6.129   9.523  0.6800 -0.2393 -0.2053
10816PW       W37382   2.036  11.487  11.634  0.4333  0.0001  0.4568
10816PW      WP37383   2.031  11.437  11.504 -0.0864 -0.2383  0.5588
10816PW      WM37384   1.933  11.494  11.728  0.1941  0.2326  0.1838
10817PW       W37385  10.082   7.767   3.125 -0.4020 -0.3135  0.1286
10817PW      WP37386  10.036   7.680   3.025  0.2384  0.0710 -0.5517
10817PW      WM37387  10.206   7.720   3.080 -0.3897  0.1396 -0.3617
10818PW       W37388   1.992   6.417  13.281 -0.2018 -0.3089  0.3403
10818PW      WP37389   1.992   6.509  13.387  0.0320  0.7071 -0.4632
10818PW      WM37390   1.994   6.530  13.199 -0.2677 -0.7084 -0.2418
10819PW       W37391   9.371   7.852  12.027 -0.2921 -0.4747  0.2167
10819PW      WP37392   9.298   7.841  12.146 -0.3360  0.0975  0.2573
10819PW      WM37393   9.465   7.770  11.963 -0.0181 -0.0488  0.0506
10820PW       W37394  10.025   3.066   1.939  0.0402 -0.6461 -0.0998
10820PW      WP37395   9.902   3.133   1.938  0.1582 -0.4187  0.1518
10820PW      WM37396  10.110   3.047   2.048  0.1039 -0.3480 -0.0942
10821PW       W37397   0.629  10.391   5.174 -0.4506 -0.0687 -0.1684
10821PW      WP37398   0.601  10.515   5.115  0.2208  0.2402  0.1113
10821PW      WM37399   0.651  10.276   5.096 -0.2833 -0.6396  0.6573
10822PW       W37400   3.775  11.509  11.897 -0.3003 -0.4537  0.0225
10822PW      WP37401   3.896  11.439  11.893  0.0650  0.1294  0.2151
10822PW      WM37402   3.867  11.584  11.971 -0.0520 -0.5822 -0.1487
10823PW       W37403   8.849   1.942   8.528 -0.0181  0.3285  0.1599
10823PW      WP37404   8.851   2.065   8.595  0.0288  0.2607  0.2853
10823PW      WM37405   8.871   1.921   8.665  0.0668 -0.2729  0.0659
10824PW       W37406   3.134   9.892  12.233 -0.0611  0.2723 -0.0446
10824PW      WP37407   3.124   9.764  12.289 -0.2604  0.2675 -0.0890
10824PW      WM37408   3.143   9.757  12.199 -0.2232  0.3718 -0.5099
10825PW       W37409  11.334   7.619   9.852  0.0492  0.3388 -0.4385
10825PW      WP37410  11.367   7.492   9.804 -0.2680  0.0060  0.1718
10825PW      WM37411  11.229   7.654   9.937 -0.1374 -0.3145 -0.3777
10826PW       W37412   2.739   1.445   2.248 -0.1084  0.2882  0.1816
10826PW      WP37413   2.836   1.542   2.221  0.3490 -0.2345 -0.1810
10826PW      WM37414   2.777   1.404   2.119 -0.0878  0.4399  0.1392
10827PW       W37415   8.427   5.286  11.964  0.1489  0.1836 -0.3886
10827PW      WP37416   8.374   5.186  11.881 -0.0366 -0.1418  0.1027
10827PW      WM37417   8.344   5.391  12.007  0.2073  0.0716  0.0136
10828PW       W37418   6.140   9.805   1.634  0.1461 -0.0764  0.1226
10828PW      WP37419   6.209   9.839   1.751  0.0646 -0.1874  0.2035
10828PW      WM37420   6.236   9.894   1.584  0.3261 -0.3248  0.0186
10829PW       W37421  10.654   7.760   4.495  0.2391  0.1824 -0.0285
10829PW      WP37422  10.574   7.868   4.536 -0.0877  0.0139 -0.2052
10829PW      WM37423  10.646   7.710   4.365 -0.6635 -0.3627  0.1942
10830PW       W37424   0.105  11.116   1.781 -0.1359  0.1833  0.1235
10830PW      WP37425   0.144  10.988   1.740 -0.3367  0.1149  0.1384
10830PW      WM37426  -0.026  11.102   1.829 -0.1141  0.1100  0.1630
10831PW       W37427   9.528   9.067   1.145  0.0047  0.4997  0.0682
10831PW      WP37428   9.454   9.159   1.070 -0.3458 -0.1757 -0.4777
10831PW      WM37429   9.511   9.004   1.268  0.1599 -0.0690 -0.1849
10832PW       W37430   9.149   0.850   0.692  0.1118 -0.1212  0.1680
10832PW      WP37431   9.247   0.759   0.650 -0.0229 -0.2853  0.2039
10832PW      WM37432   9.190   0.866   0.559  0.1375 -0.2027  0.1659
10833PW       W37433   7.001   9.953   1.982  0.0294 -0.1281 -0.0187
10833PW      WP37434   7.030   9.816   1.972 -0.1816 -0.2283  0.5460
10833PW      WM37435   6.879   9.911   2.037 -0.0158  0.4570  0.3726
10834PW       W37436   5.358   9.589   3.147 -0.3085  0.3985  0.1557
10834PW      WP37437   5.282   9.498   3.074  0.0879  0.0662  0.1407
10834PW      WM37438   5.423   9.637   3.262  0.3959 -0.1589  0.0229
10835PW       W37439   3.279   8.090   2.487  0.2073  0.2294 -0.1922
10835PW      WP37440   3.201   8.198   2.529  0.2198  0.2237 -0.1539
10835PW      WM37441   3.416   8.110   2.510  0.1940 -0.1256  0.2568
10836PW       W37442   9.979   3.082   1.054  0.0862 -0.2918  0.0121
10836PW      WP37443   9.991   3.065   1.193  0.2728  0.6164  0.1361
10836PW      WM37444   9.865   3.005   1.025  0.0684 -0.4198  0.3915
10837PW       W37445   0.885   0.077   9.117  0.3022 -0.3782 -0.5359
10837PW      WP37446   0.985   0.005   9.052  0.4028 -0.1879 -0.5939
10837PW      WM37447   0.801   0.006   9.204  0.5185  0.0625  0.0698
10838PW       W37448   7.973   6.094   1.346  0.6173 -0.1578 -0.4046
10838PW      WP37449   8.040   6.112   1.468 -0.1426 -0.3267  0.0679
10838PW      WM37450   8.038   5.970   1.354  0.0068 -0.4715  0.1117
10839PW       W37451  10.096   5.710   8.812  0.5094 -0.1534 -0.3025
10839PW      WP37452  10.150   5.643   8.923 -0.2336 -0.4959 -0.1120
10839PW      WM37453  10.144   5.838   8.843 -0.5717  0.2219  0.0661
10840PW       W37454   1.879  11.504   4.414  0.3631 -0.4463  0.6419
10840PW      WP37455   1.916  11.398   4.331 -0.0491  0.0960 -0.3151
10840PW      WM37456   1.935  11.597   4.503 -0.0591  0.0070  0.4572
10841PW       W37457   4.052   7.667   3.894  0.1770 -0.3799 -0.0982
10841PW      WP37458   4.184   7.621   3.910  0.2242 -0.1617  0.1872
10841PW      WM37459   3.980   7.701   3.779  0.3930  0.3559 -0.0440
10842PW       W37460   7.541  10.491  11.082  0.0916  0.1646  0.1155
10842PW      WP37461   7.655  10.558  11.128  0.2481 -0.1947  0.2720
10842PW      WM37462   7.437  10.407  11.124 -0.0721  0.2126 -0.1786
10843PW       W37463   1.837   6.039   2.001 -0.2423  0.5257  0.0850
10843PW      WP37464   1.814   5.902   2.019  0.3686  0.3947 -0.0093
10843PW      WM37465   1.971   6.029   1.961 -0.1947  0.4848  0.2521
10844PW       W37466   1.709  10.344  10.863  0.2293 -0.3038  0.1138
10844PW      WP37467   1.592  10.285  10.915 -0.1195 -0.0270 -0.3190
10844PW      WM37468   1.824  10.418  10.836  0.2460 -0.1887  0.4798
10845PW       W37469   3.363   3.290   1.364  0.1316 -0.1135  0.2798
10845PW      WP37470   3.349   3.150   1.361  0.0384 -0.1003  0.0466
10845PW      WM37471   3.455   3.308   1.469 -0.0021  0.0525  0.3715
10846PW       W37472   6.049   4.844   1.941  0.3505  0.2319 -0.1825
10846PW      WP37473   5.957   4.858   2.045  0.5144 -0.5173  0.0967
10846PW      WM37474   5.991   4.958   1.883  0.2300 -0.1260 -0.8107
10847PW       W37475   9.294  11.880   2.697 -0.0820 -0.3507 -0.0402
10847PW      WP37476   9.428  11.840   2.697  0.1290  0.2690  0.5433
10847PW      WM37477   9.249  11.833   2.821 -0.1394  0.4193  0.2568
10848PW       W37478   4.740   8.386   0.955 -0.1364 -0.4960 -0.3224
10848PW      WP37479   4.766   8.486   1.050 -0.2946 -0.5732 -0.1962
10848PW      WM37480   4.797   8.403   0.829  0.0304 -0.1302 -0.2036
10849PW       W37481   0.788   3.514   1.324 -0.1344  0.1676  0.2705
10849PW      WP37482   0.690   3.604   1.280  0.4817  0.4274 -0.7410
10849PW      WM37483   0.881   3.510   1.429 -0.4644 -0.1839  0.5615
10850PW       W37484   1.352   3.226   3.620 -0.1997  0.0287  0.1744
10850PW      WP37485   1.419   3.114   3.571  0.0322  0.1130  0.2928
10850PW      WM37486   1.321   3.361   3.642 -0.3563 -0.0119  0.2118
10851PW       W37487   0.085   1.477   3.617 -0.0965 -0.0086  0.3292
10851PW      WP37488   0.125   1.435   3.490 -0.7270  0.4444 -0.0517
10851PW      WM37489  -0.037   1.459   3.684 -0.1575  0.0964  0.2497
10852PW       W37490   0.936  10.529  10.179 -0.0781  0.0397  0.0984
10852PW      WP37491   0.821  10.599  10.143  0.2550  0.3229 -0.4924
10852PW      WM37492   1.040  10.579  10.100 -0.4325  0.2743 -0.2329
10853PW       W37493   2.574  10.725  11.843  0.2920 -0.4493 -0.2982
10853PW      WP37494   2.586  10.864  11.834  0.5848 -0.4162  0.3266
10853PW      WM37495   2.468  10.765  11.760  0.2130  0.1203  0.0538
10854PW       W37496   2.522  10.595   3.783  0.1207 -0.0072  0.2131
10854PW      WP37497   2.484  10.461   3.766  0.1392 -0.0254  0.3132
10854PW      WM37498   2.394  10.651   3.777 -0.0821 -0.4638  0.0134
10855PW       W37499   0.600   9.684  10.581  0.1517 -0.2162  0.0302
10855PW      WP37500   0.532   9.673  10.703 -0.0711 -0.0296 -0.0755
10855PW      WM37501   0.610   9.571  10.500  0.0458 -0.3750  0.2343
10856PW       W37502   4.239   5.200   8.900 -0.1037  0.2936  0.0869
10856PW      WP37503   4.281   5.330   8.868 -0.0552  0.2332 -0.1014
10856PW      WM37504   4.327   5.105   8.846 -0.1394 -0.0466  0.5937
10857PW       W37505   2.700   6.602  12.646  0.4580  0.1370  0.1801
10857PW      WP37506   2.726   6.662  12.522  0.2731  0.3489  0.2406
10857PW      WM37507   2.626   6.547  12.751 -0.1309 -0.0509 -0.3070
10858PW       W37508   0.114   3.526  10.937 -0.3225  0.0961  0.2589
10858PW      WP37509   0.156   3.396  10.905 -0.0703  0.2427 -0.0294
10858PW      WM37510   0.184   3.529  11.058  0.0796 -0.1932  0.0459
10859PW       W37511   0.463  11.015  10.983 -0.2805  0.3981  0.4481
10859PW      WP37512   0.601  11.036  10.974 -0.3308  0.5478 -0.4356
10859PW      WM37513   0.467  11.140  10.919  0.0525  0.0430 -0.2878
10860PW       W37514   7.461   8.410   1.317  0.0326 -0.1528 -0.1433
10860PW      WP37515   7.407   8.367   1.439  0.1413 -0.6431 -0.2584
10860PW      WM37516   7.556   8.355   1.230  0.2806  0.0820 -0.0264
10861PW       W37517   5.625   1.691  12.078 -0.0623  0.0255 -0.0375
10861PW      WP37518   5.688   1.775  11.986  0.0570  0.1701  0.1718
10861PW      WM37519   5.536   1.663  12.183 -0.0247  0.1455  0.0272
10862PW       W37520   9.077   0.667   2.826 -0.0240  0.0092 -0.1000
10862PW      WP37521   9.085   0.777   2.740 -0.0174  0.0100 -0.0984
10862PW      WM37522   8.943   0.684   2.790 -0.1302 -0.2392  0.1581
10863PW       W37523  11.650   6.381   3.359  0.1712 -0.1513 -0.3383
10863PW      WP37524  11.572   6.302   3.444  0.1799  0.1694 -0.0210
10863PW      WM37525  11.561   6.431   3.263  0.1015 -0.1771 -0.2879
10864PW       W37526   3.699   4.257   4.042  0.2144 -0.0406 -0.3812
10864PW      WP37527   3.826   4.315   4.040  0.2436 -0.0470  0.2891
10864PW      WM37528   3.699   4.118   4.064  0.6047  0.0608  0.4339
10865PW       W37529   8.222   1.023   1.182  0.2732 -0.0054 -0.1033
10865PW      WP37530   8.206   0.985   1.315 -0.5290  0.3151 -0.0778
10865PW      WM37531   8.215   0.896   1.123  0.3775  0.0844 -0.3176
10866PW       W37532   4.666   7.552   2.835 -0.0305  0.3494  0.0072
10866PW      WP37533   4.695   7.689   2.823  0.1064  0.3062 -0.1795
10866PW      WM37534   4.778   7.488   2.890  0.1759  0.3852 -0.3581
10867PW       W37535   4.231   3.718   3.384  0.3056 -0.1964 -0.0422
10867PW      WP37536   4.302   3.813   3.457 -0.3694  0.7896 -0.5590
10867PW      WM37537   4.195   3.588   3.344  0.0256 -0.2341  0.3038
10868PW       W37538  10.998   6.916   3.140 -0.1776 -0.2774  0.0607
10868PW      WP37539  11.036   7.034   3.206  0.0618 -0.4944  0.3256
10868PW      WM37540  11.022   6.828   3.247 -0.1897  0.2979  0.5665
10869PW       W37541   3.445   0.029   3.656  0.2725 -0.1008  0.7236
10869PW      WP37542   3.390   0.138   3.725 -0.2816  0.2118 -0.1193
10869PW      WM37543   3.465  -0.087   3.581  0.3552  0.3511 -0.0061
10870PW       W37544   5.404   9.990   8.722 -0.3458 -0.3090  0.0312
10870PW      WP37545   5.363   9.858   8.698  0.5069 -0.6879  0.4377
10870PW      WM37546   5.526   9.950   8.776 -0.3653 -0.2933  0.0873
10871PW       W37547   0.472  10.537   1.362  0.0614 -0.1710  0.3942
10871PW      WP37548   0.581  10.522   1.449  0.0165  0.1703  0.5175
10871PW      WM37549   0.341  10.573   1.393 -0.0634  0.1813 -0.4067
10872PW       W37550   3.453   5.975   7.977  0.2235  0.4883 -0.4468
10872PW      WP37551   3.532   6.090   7.967 -0.0502  0.6451 -0.9957
10872PW      WM37552   3.534   5.868   8.015 -0.0732  0.4583  0.1772
10873PW       W37553   8.842   6.621   3.427  0.3289  0.0891  0.1250
10873PW      WP37554   8.844   6.737   3.505  0.6324  0.1914 -0.0265
10873PW      WM37555   8.719   6.671   3.383  0.1325 -0.3234  0.1828
10874PW       W37556   6.914   0.809  12.304 -0.0443  0.1537  0.1901
10874PW      WP37557   6.904   0.885  12.187 -0.2360  0.0218  0.1184
10874PW      WM37558   6.923   0.881  12.423 -0.1790 -0.1313  0.3797
10875PW       W37559   0.341   2.466   3.851  0.1353  0.3641 -0.2991
10875PW      WP37560   0.315   2.444   3.715  0.3895 -0.0179 -0.2931
10875PW      WM37561   0.363   2.584   3.923 -0.0936  0.1388  0.1648
10876PW       W37562   2.294   7.388  10.559  0.2548  0.1757 -0.2139
10876PW      WP37563   2.374   7.406  10.445 -0.2353  0.4290 -0.5336
10876PW      WM37564   2.332   7.354  10.689 -0.1274  0.1879 -0.0950
10877PW       W37565   0.882  10.098   2.718  0.0095 -0.0756 -0.2450
10877PW      WP37566   0.821   9.989   2.655 -0.3491 -0.1304  0.1733
10877PW      WM37567   1.012  10.148   2.701 -0.0491  0.2916  0.2583
10878PW       W37568   2.520   0.296   4.022  0.3636 -0.0429 -0.6401
10878PW      WP37569   2.554   0.395   4.115  0.4830  0.1075 -0.8395
10878PW      WM37570   2.383   0.324   4.012  0.1402 -0.5410  0.3622
10879PW       W37571   1.390   2.276   4.955  0.1197  0.2209  0.1851
10879PW      WP37572   1.349   2.202   4.844  0.1952  0.0891  0.2446
10879PW      WM37573   1.373   2.410   4.995  0.3075  0.4927 -0.5596
10880PW       W37574   8.205  11.232   1.631 -0.0503 -0.2110  0.1170
10880PW      WP37575   8.092  11.150   1.643 -0.1127 -0.0731  0.5811
10880PW      WM37576   8.212  11.289   1.758 -0.1457 -0.5481  0.2800
10881PW       W37577   4.675   3.403   4.009 -0.0187  0.0043  0.2351
10881PW      WP37578   4.777   3.451   3.925  0.1088 -0.2266  0.2543
10881PW      WM37579   4.646   3.537   4.038  0.8092  0.2154  0.2362
10882PW       W37580   1.446   9.844  12.782 -0.2526 -0.4579 -0.1500
10882PW      WP37581   1.322   9.909  12.776 -0.1066 -0.1069  0.3388
10882PW      WM37582   1.505   9.876  12.659 -0.6150 -0.2088 -0.2668
10883PW       W37583   6.009   5.192   1.080  0.2302 -0.0398 -0.0576
10883PW      WP37584   6.073   5.102   0.994 -0.5765 -0.9465  0.2166
10883PW      WM37585   5.957   5.114   1.184 -0.5081 -0.0562 -0.4071
10884PW       W37586   0.753   2.948  11.385  0.1179  0.0539 -0.4410
10884PW      WP37587   0.746   3.083  11.350  0.3256  0.2384  0.1641
10884PW      WM37588   0.800   2.938  11.517 -0.1566  0.1759 -0.3311
10885PW       W37589  12.135  12.055   3.594 -0.2204  0.1337  0.3105
10885PW      WP37590  12.211  11.994   3.494 -0.0132 -0.1393  0.6225
10885PW      WM37591  12.005  12.035   3.545 -0.0624 -0.6633  0.1534
10886PW       W37592   1.410   9.695  11.338 -0.2193 -0.1631 -0.1871
10886PW      WP37593   1.348   9.723  11.461  0.2092  0.1462 -0.0273
10886PW      WM37594   1.523   9.730  11.263 -0.4125  0.1284 -0.3489
10887PW       W37595   9.221   2.902   2.948  0.0881  0.2410  0.5143
10887PW      WP37596   9.175   2.790   3.019 -0.1964  0.0806  0.0986
10887PW      WM37597   9.193   3.035   2.982  0.0575  0.3781 -0.0086
10888PW       W37598  11.452   7.032   4.114 -0.0418  0.3060  0.4037
10888PW      WP37599  11.570   7.108   4.120  0.2222 -0.0217 -0.1736
10888PW      WM37600  11.481   6.967   4.235  0.9354 -0.1019  0.0035
10889PW       W37601   5.334   0.594   3.909 -0.1431  0.3589 -0.1278
10889PW      WP37602   5.245   0.679   3.843 -0.3761  0.1840 -0.0466
10889PW      WM37603   5.326   0.470   3.845  0.3851  0.4625 -0.4279
10890PW       W37604   1.112   3.385   4.958  0.6072  0.1451  0.5586
10890PW      WP37605   1.058   3.324   5.073 -0.0802  0.1376  0.2563
10890PW      WM37606   1.126   3.247   4.941  0.6016  0.1435  0.5655
10891PW       W37607  11.349   5.597   0.995 -0.1938  0.4522 -0.0095
10891PW      WP37608  11.269   5.496   0.941 -0.0945  0.3439  0.0441
10891PW      WM37609  11.385   5.589   1.130  0.2069 -0.1614 -0.1335
10892PW       W37610   7.692   6.461   2.007  0.0455 -0.1631  0.1650
10892PW      WP37611   7.596   6.531   1.934  0.3727 -0.1078 -0.2319
10892PW      WM37612   7.821   6.427   1.964  0.0121 -0.4631  0.2854
10893PW       W37613   5.021   5.797   3.000 -0.0770 -0.1035 -0.3284
10893PW      WP37614   5.126   5.865   2.937  0.2965  0.1805  0.5244
10893PW      WM37615   5.053   5.668   3.045 -0.1982 -0.0552 -0.0940
10894PW       W37616   7.303   6.773  12.585 -0.2890 -0.2885  0.4296
10894PW      WP37617   7.381   6.747  12.698  0.1227 -0.1913  0.1779
10894PW      WM37618   7.334   6.779  12.449 -0.6529 -0.2280  0.3449
10895PW       W37619   3.506   8.812   9.652 -0.0710  0.5566  0.0345
10895PW      WP37620   3.641   8.812   9.615  0.1737 -0.4121  0.7292
10895PW      WM37621   3.553   8.833   9.782  0.2516  0.4128 -0.0531
10896PW       W37622   8.290   1.351   3.959  0.1205  0.6970  0.2186
10896PW      WP37623   8.158   1.347   3.913  0.1433  0.5247  0.1655
10896PW      WM37624   8.337   1.226   4.000  0.5448  0.6569 -0.3329
10897PW       W37625   7.443  11.135  12.267  0.3639  0.1858 -0.1364
10897PW      WP37626   7.469  11.109  12.133  0.2178  0.0164 -0.1339
10897PW      WM37627   7.579  11.167  12.276  0.3573  0.1949 -0.0639
10898PW       W37628   8.340   8.563  12.464 -0.3416  0.3207 -0.0220
10898PW      WP37629   8.298   8.446  12.400 -0.4111  0.0921  0.4223
10898PW      WM37630   8.266   8.596  12.578 -0.2583  0.1630  0.0799
10899PW       W37631   0.349   0.279   1.722 -0.1597 -0.5195  0.0198
10899PW      WP37632   0.394   0.278   1.589  0.1434 -0.4954  0.1178
10899PW      WM37633   0.436   0.345   1.809 -0.4356  0.0452 -0.1105
10900PW       W37634   7.288   0.141  11.297 -0.2169  0.5985  0.0185
10900PW      WP37635   7.426   0.115  11.296 -0.2995  0.0571  0.4292
10900PW      WM37636   7.165   0.115  11.359 -0.1587  0.4039  0.0578
10901PW       W37637   3.571   6.756   4.894 -0.0698  0.0846 -0.1126
10901PW      WP37638   3.432   6.754   4.880 -0.0804 -0.6531 -0.1159
10901PW      WM37639   3.598   6.638   4.964  0.4576 -0.0185 -0.4644
10902PW       W37640   2.055   9.722   3.638  0.0467 -0.1799  0.1370
10902PW      WP37641   2.131   9.681   3.528 -0.2467 -0.2543 -0.0432
10902PW      WM37642   2.083   9.814   3.740  0.0632 -0.3107  0.2508
10903PW       W37643  10.089   5.730  10.738 -0.4365  0.1836 -0.0583
10903PW      WP37644  10.082   5.630  10.837  0.2791 -0.1732 -0.3319
10903PW      WM37645  10.057   5.837  10.823 -0.1246  0.3235 -0.1112
10904PW       W37646   8.881  10.193   1.175 -0.1994  0.1712 -0.0254
10904PW      WP37647   8.850  10.287   1.275  0.1200  0.5809 -0.2943
10904PW      WM37648   9.000  10.225   1.109  0.0978  0.0114  0.4087
10905PW       W37649   4.879   5.143  12.096 -0.5492  0.1766  0.1326
10905PW      WP37650   4.881   5.019  12.162 -0.6309 -0.0796 -0.3219
10905PW      WM37651   4.854   5.080  11.973  0.2902 -0.1227  0.0854
10906PW       W37652   3.208   1.266   2.183 -0.2441 -0.0107 -0.3817
10906PW      WP37653   3.181   1.372   2.270 -0.3215 -0.1262 -0.2641
10906PW      WM37654   3.282   1.169   2.250 -0.2174  0.1419 -0.1857
10907PW       W37655  10.440  10.764   1.375  0.2352 -0.1982 -0.2956
10907PW      WP37656  10.393  10.632   1.373 -0.0400 -0.1127 -0.0094
10907PW      WM37657  10.485  10.723   1.250  0.0136 -0.0312 -0.4342
10908PW       W37658   1.823  -0.047   3.122 -0.0840 -0.0232  0.0220
10908PW      WP37659   1.855  -0.018   3.255  0.3552 -0.2873 -0.0158
10908PW      WM37660   1.885   0.078   3.130  0.4405 -0.2569 -0.1789
10909PW       W37661   8.482  11.649   0.197 -0.1458 -0.0198  0.0194
10909PW      WP37662   8.550  11.533   0.236 -0.1811 -0.0022  0.1365
10909PW      WM37663   8.389  11.706   0.109  0.2772  0.0786 -0.3844
10910PW       W37664   7.762   7.449  11.590  0.6336  0.0680 -0.3750
10910PW      WP37665   7.639   7.418  11.529  0.2827  0.0322  0.3103
10910PW      WM37666   7.748   7.552  11.497 -0.6493  0.2256 -0.0954
10911PW       W37667   3.931   7.399  10.131  0.2678  0.1280 -0.1595
10911PW      WP37668   4.028   7.399  10.231 -0.0649 -0.0406  0.1769
10911PW      WM37669   3.866   7.510  10.186  0.0778 -0.2511  0.4331
10912PW       W37670   0.486   8.828   2.492 -0.1873  0.2815  0.0820
10912PW      WP37671   0.356   8.881   2.484 -0.3684 -0.1160  0.2587
10912PW      WM37672   0.573   8.877   2.589  0.0081 -0.2837  0.2096
10913PW       W37673   4.116  11.371  12.509 -0.5278  0.5174 -0.1984
10913PW      WP37674   4.226  11.457  12.508 -0.1387  0.0595  0.1631
10913PW      WM37675   4.171  11.489  12.561 -0.1715  0.2743  0.0013
10914PW       W37676   2.485   4.692  12.012 -0.2623 -0.7003  0.3368
10914PW      WP37677   2.556   4.576  12.044  0.4760 -0.3705  0.0001
10914PW      WM37678   2.597   4.732  11.938 -0.4182 -0.4357  0.2340
10915PW       W37679  11.494  11.617   0.755  0.0012 -0.1402 -0.1762
10915PW      WP37680  11.609  11.655   0.824 -0.1509 -0.3179  0.1900
10915PW      WM37681  11.457  11.549   0.638 -0.4480 -0.3154  0.0548
10916PW       W37682   1.794   2.521  13.009  0.3559  0.2331 -0.1963
10916PW      WP37683   1.867   2.639  13.026 -0.0446  0.5027 -0.2856
10916PW      WM37684   1.903   2.467  12.939  0.3762 -0.1445  0.1142
10917PW       W37685   9.573  10.274   1.981 -0.0603 -0.0231 -0.0967
10917PW      WP37686   9.637  10.158   2.027  0.1032  0.2153  0.3006
10917PW      WM37687   9.524  10.364   2.077 -0.2045 -0.2320  0.0319
10918PW       W37688   4.030  12.017  11.465  0.6296 -0.0983  0.2243
10918PW      WP37689   3.950  12.110  11.396  0.4239 -0.2121  0.3044
10918PW      WM37690   4.001  12.002  11.601  0.3207 -0.3130  0.1399
10919PW       W37691   5.642   0.880  10.802 -0.1587  0.0823  0.3282
10919PW      WP37692   5.681   0.778  10.715 -0.4054  0.5290 -0.3511
10919PW      WM37693   5.750   0.913  10.719 -0.2060 -0.3789  0.0675
10920PW       W37694   8.194  10.157   4.120  0.2428 -0.1543 -0.0016
10920PW      WP37695   8.071  10.154   4.185  0.5649 -0.3164  0.6393
10920PW      WM37696   8.298  10.189   4.032  0.0772 -0.1087 -0.1850
10921PW       W37697   3.647   6.617  11.864 -0.0428 -0.0452  0.4884
10921PW      WP37698   3.688   6.746  11.900  0.3192  0.0554 -0.2037
10921PW      WM37699   3.570   6.727  11.903  0.1416  0.2252  0.1220
10922PW       W37700   4.048   2.789  11.687  0.2588 -0.1574  0.4450
10922PW      WP37701   3.964   2.705  11.762  0.1395  0.0765  0.5815
10922PW      WM37702   4.181   2.760  11.720  0.4046 -0.6106 -0.4221
10923PW       W37703   5.528   6.318  12.793 -0.1724 -0.2023 -0.0708
10923PW      WP37704   5.401   6.321  12.852 -0.1464  0.1368 -0.0203
10923PW      WM37705   5.559   6.405  12.898  0.3485  0.1375 -0.4821
10924PW       W37706   4.836  11.551  11.763 -0.3240 -0.1875  0.2043
10924PW      WP37707   4.867  11.637  11.869  0.3073  0.1209 -0.2002
10924PW      WM37708   4.911  11.433  11.753  0.3944  0.2633 -0.1877
10925PW       W37709   6.246   9.589   0.064  0.2781 -0.3745 -0.4685
10925PW      WP37710   6.166   9.477   0.088  0.1851 -0.1986  0.1318
10925PW      WM37711   6.318   9.618  -0.053 -0.0631  0.1655 -0.5642
10926PW       W37712   9.280  10.633  11.088  0.2268 -0.2657 -0.5018
10926PW      WP37713   9.403  10.692  11.060  0.1467 -0.0161 -0.3367
10926PW      WM37714   9.141  10.616  11.084  0.1789 -0.0253 -0.0676
10927PW       W37715   4.564   1.786   3.885 -0.1316 -0.0089 -0.2663
10927PW      WP37716   4.638   1.901   3.914 -0.0320 -0.0875 -0.2086
10927PW      WM37717   4.487   1.705   3.970 -0.1629  0.4441  0.1611
10928PW       W37718   9.300  11.742   2.075 -0.0866 -0.3173  0.1428
10928PW      WP37719   9.188  11.792   2.142 -0.1351 -0.1554 -0.0534
10928PW      WM37720   9.401  11.645   2.085  0.4227  0.1666 -0.0700
10929PW       W37721   8.449  11.721  11.866  0.1518  0.3094  0.0685
10929PW      WP37722   8.413  11.842  11.805 -0.3661 -0.0794 -0.4615
10929PW      WM37723   8.568  11.742  11.937  0.0981 -0.0525  0.2782
10930PW       W37724   7.028   3.604   2.579  0.2130  0.2131  0.0647
10930PW      WP37725   7.111   3.691   2.651 -0.1573  0.6297  0.0063
10930PW      WM37726   7.055   3.684   2.468  0.0573  0.1478 -0.0221
10931PW       W37727   0.861   6.880  11.979 -0.1563 -0.0576 -0.2725
10931PW      WP37728   0.950   6.813  12.064 -0.3185  0.1665  0.0889
10931PW      WM37729   0.808   6.805  11.873 -0.6387  0.0771 -0.1431
10932PW       W37730   2.926   6.179  11.378  0.0135  0.2960 -0.0430
10932PW      WP37731   2.877   6.049  11.358  0.8678 -0.1492  0.4564
10932PW      WM37732   3.053   6.193  11.320  0.1756  0.0152  0.2247
10933PW       W37733   5.581   5.954  12.053 -0.2485 -0.0624 -0.1190
10933PW      WP37734   5.491   5.951  11.946  0.1454  0.4684 -0.4909
10933PW      WM37735   5.675   5.923  11.954  0.1703 -0.0693  0.2620
10934PW       W37736   0.304   6.393  12.779 -0.6678 -0.3889  0.2463
10934PW      WP37737   0.339   6.349  12.651 -0.2832  0.2403  0.1126
10934PW      WM37738   0.374   6.308  12.866  0.1565 -0.4747 -0.4378
10935PW       W37739   8.053  10.042   2.008  0.0235 -0.1170  0.3419
10935PW      WP37740   8.120  10.163   2.022 -0.0814 -0.1105  0.8915
10935PW      WM37741   7.985  10.029   1.886 -0.5260 -0.5362  0.6666
10936PW       W37742   7.596   8.435   9.750 -0.0337 -0.2764 -0.2248
10936PW      WP37743   7.492   8.387   9.669 -0.3151  0.8189 -0.6029
10936PW      WM37744   7.580   8.472   9.884 -0.4036  0.4150 -0.4374
10937PW       W37745  11.441  10.310   9.746 -0.1608 -0.3783 -0.0214
10937PW      WP37746  11.513  10.300   9.865 -0.2377 -0.0749  0.0554
10937PW      WM37747  11.366  10.231   9.834  0.1241 -0.2860  0.3119
10938PW       W37748   6.401  11.269   0.556 -0.0042 -0.0415 -0.2040
10938PW      WP37749   6.277  11.299   0.500 -0.0129  0.4223  0.0399
10938PW      WM37750   6.470  11.171   0.629 -0.4025 -0.4134 -0.3075
10939PW       W37751   1.277  10.408   0.019  0.0873  0.0102 -0.0885
10939PW      WP37752   1.315  10.542   0.010 -0.2153  0.1318  0.2730
10939PW      WM37753   1.143  10.366   0.021 -0.1545  0.6970 -0.4812
10940PW       W37754   1.381   7.335   1.689  0.1707  0.1997  0.0928
10940PW      WP37755   1.408   7.453   1.759 -0.0673  0.3511 -0.0621
10940PW      WM37756   1.393   7.217   1.763  0.3489 -0.0895 -0.3729
10941PW       W37757   9.065   9.044   4.135 -0.0702 -0.1033  0.1299
10941PW      WP37758   9.064   8.966   4.251 -0.2301 -0.3766 -0.0494
10941PW      WM37759   9.065   9.090   4.003 -0.5507 -0.1837  0.0941
10942PW       W37760   2.319   4.584  11.540 -0.1149 -0.2166 -0.1981
10942PW      WP37761   2.454   4.549  11.549 -0.0932 -0.1520 -0.2675
10942PW      WM37762   2.305   4.722  11.555  0.3772 -0.1838  0.0621
10943PW       W37763   5.037  11.729   3.744  0.1716  0.1452  0.4219
10943PW      WP37764   4.959  11.843   3.766 -0.0708  0.0929 -0.0796
10943PW      WM37765   5.154  11.770   3.680  0.0827  0.6470  0.5621
10944PW       W37766   1.416   0.883  12.226  0.2882  0.1901 -0.0597
10944PW      WP37767   1.414   0.889  12.086 -0.1953 -0.7532 -0.1331
10944PW      WM37768   1.294   0.950  12.244  0.0130 -0.2686 -0.1445
10945PW       W37769   5.801   0.312   3.153  0.5574 -0.2837  0.6698
10945PW      WP37770   5.820   0.249   3.277 -0.1833 -0.5253  0.6798
10945PW      WM37771   5.766   0.210   3.064  0.2406 -0.0047  0.4643
10946PW       W37772   4.639   7.001   2.664  0.0856  0.0292 -0.6820
10946PW      WP37773   4.595   7.131   2.695  0.0881  0.0130 -0.6092
10946PW      WM37774   4.773   7.018   2.630  0.2829  0.1912  0.0794
10947PW       W37775   5.536   2.983   1.773  0.1733 -0.4259  0.6826
10947PW      WP37776   5.484   2.857   1.741 -0.0412 -0.1855 -0.0313
10947PW      WM37777   5.402   2.998   1.733  0.3734 -0.0430  0.0768
10948PW       W37778  12.005  10.642   1.933 -0.2566 -0.1385 -0.0014
10948PW      WP37779  11.886  10.604   1.997 -0.1182 -0.1238  0.2755
10948PW      WM37780  12.007  10.765   2.001 -0.0584 -0.2087  0.1245
10949PW       W37781  11.965   6.414   2.372  0.2823  0.1738 -0.2412
10949PW      WP37782  12.020   6.482   2.481 -0.4592  0.2467  0.1202
10949PW      WM37783  11.969   6.295   2.297 -0.5025 -0.1797  0.2112
10950PW       W37784   5.387   6.773  12.562  0.2197 -0.3740 -0.4913
10950PW      WP37785   5.295   6.850  12.489  0.0763  0.1712  0.2161
10950PW      WM37786   5.282   6.865  12.559  0.2233 -0.3238  0.2493
10951PW       W37787   6.230   7.232   4.415 -0.2609  0.0100  0.0292
10951PW      WP37788   6.199   7.128   4.503 -0.3761 -0.1221 -0.1635
10951PW      WM37789   6.327   7.301   4.489 -0.2244  0.2121 -0.2026
10952PW       W37790   7.895  10.621   2.862 -0.0433  0.1949 -0.1696
10952PW      WP37791   7.774  10.678   2.902 -0.4144 -0.7542  0.2011
10952PW      WM37792   7.863  10.583   2.731 -0.1884 -0.3905  0.0206
10953PW       W37793   1.678   1.377  11.561  0.1898  0.1093 -0.0855
10953PW      WP37794   1.543   1.350  11.541  0.1353  0.0116  0.3579
10953PW      WM37795   1.751   1.457  11.472  0.0163 -0.0331 -0.3650
10954PW       W37796   6.235   2.013   9.680 -0.1095  0.4035  0.5559
10954PW      WP37797   6.108   2.070   9.671  0.0570  0.7265 -0.4114
10954PW      WM37798   6.358   2.061   9.633  0.1522 -0.4434  0.2951
10955PW       W37799   7.610   7.198   8.714  0.4302 -0.0689  0.1313
10955PW      WP37800   7.488   7.252   8.670  0.4602 -0.1784 -0.0906
10955PW      WM37801   7.720   7.123   8.756  0.5455 -0.1615 -0.3139
10956PW       W37802  12.120   6.358   8.266 -0.0856  0.1282  0.0578
10956PW      WP37803  12.029   6.256   8.296  0.2024 -0.3155 -0.4884
10956PW      WM37804  12.098   6.446   8.373  0.1010 -0.1364  0.3230
10957PW       W37805   2.445   1.958  13.002 -0.2245  0.4750 -0.2541
10957PW      WP37806   2.343   1.953  12.906  0.0819 -0.1160 -0.5754
10957PW      WM37807   2.428   1.959  13.141  0.0371 -0.0958 -0.2024
10958PW       W37808   1.134   2.658   1.780 -0.1431 -0.0245 -0.1619
10958PW      WP37809   1.211   2.748   1.854 -0.4462  0.0855  0.0286
10958PW      WM37810   1.082   2.665   1.910 -0.2538  0.2924 -0.2200
10959PW       W37811   1.392   0.617   4.449 -0.2076 -0.2322  0.1237
10959PW      WP37812   1.479   0.709   4.388 -0.3655 -0.4308 -0.4294
10959PW      WM37813   1.266   0.649   4.500 -0.1711  0.1141  0.0117
10960PW       W37814   0.952   8.273  11.307  0.1313 -0.3011 -0.3216
10960PW      WP37815   0.948   8.410  11.281  0.0142 -0.2153  0.1033
10960PW      WM37816   1.017   8.157  11.352  0.0843 -0.3097 -0.2746
10961PW       W37817  10.740   9.011   3.612 -0.0225 -0.1752  0.1484
10961PW      WP37818  10.865   9.000   3.675  0.2202  0.6170 -0.1458
10961PW      WM37819  10.735   9.143   3.566  0.1981 -0.2778 -0.1881
10962PW       W37820   2.815   9.148   0.891 -0.6888 -0.1296  0.2661
10962PW      WP37821   2.776   9.185   0.761  0.7583 -0.2629 -0.3037
10962PW      WM37822   2.765   9.089   0.774 -0.4274  0.1662 -0.0049
10963PW       W37823   5.290   3.642   5.255  0.0612  0.1033  0.5261
10963PW      WP37824   5.418   3.590   5.277 -0.0528 -0.2506  0.3931
10963PW      WM37825   5.289   3.780   5.275 -0.3325  0.1962 -0.0128
10964PW       W37826   4.972   5.897  11.167  0.1728 -0.2587 -0.3700
10964PW      WP37827   4.855   5.822  11.151 -0.4611  0.5578  0.0288
10964PW      WM37828   5.014   6.021  11.116  0.1857 -0.1509 -0.1034
10965PW       W37829   9.482  10.639  12.230 -0.3778  0.1971  0.1829
10965PW      WP37830   9.458  10.763  12.169 -0.1716  0.0562 -0.2044
10965PW      WM37831   9.539  10.622  12.357 -0.3119 -0.0277  0.1250
10966PW       W37832   4.022  11.463   4.722 -0.6092 -0.2604  0.1791
10966PW      WP37833   4.086  11.551   4.810 -0.2986 -0.6799  0.3926
10966PW      WM37834   4.087  11.339   4.722 -0.0477  0.0101 -0.1889
10967PW       W37835  10.288  11.278   3.711 -0.3884  0.0383  0.0869
10967PW      WP37836  10.332  11.394   3.776 -0.2518  0.1519 -0.1994
10967PW      WM37837  10.208  11.232   3.606 -0.0793  0.1610 -0.2106
10968PW       W37838   6.491  10.996  12.464 -0.2439  0.2659 -0.0292
10968PW      WP37839   6.387  10.946  12.544  0.1943 -0.1876  0.2937
10968PW      WM37840   6.589  10.905  12.421 -0.1237  0.2876  0.1875
10969PW       W37841   4.254   2.214   7.957 -0.0029 -0.2889  0.1981
10969PW      WP37842   4.120   2.228   7.996  0.0261 -0.5697  0.4135
10969PW      WM37843   4.245   2.276   8.082 -0.2311  0.3079 -0.0934
10970PW       W37844   6.924   3.515   0.832 -0.1182  0.2068  0.2865
10970PW      WP37845   6.825   3.508   0.733 -0.1540  0.6217  0.2860
10970PW      WM37846   6.935   3.589   0.950  0.0709  0.4043  0.1471
10971PW       W37847   4.396   3.891   2.759  0.3135  0.2877  0.1815
10971PW      WP37848   4.283   3.972   2.741  0.1189  0.0225  0.1795
10971PW      WM37849   4.454   3.865   2.634  0.7609 -0.1506  0.4647
10972PW       W37850  10.970   8.515  11.685 -0.2140  0.5364 -0.3278
10972PW      WP37851  10.880   8.432  11.617 -0.0126 -0.0317  0.0649
10972PW      WM37852  11.015   8.615  11.597  0.5798  0.3157 -0.2149
10973PW       W37853   2.352   7.137  12.001  0.1007 -0.2741 -0.2474
10973PW      WP37854   2.226   7.139  11.940 -0.2772 -0.1207  0.4765
10973PW      WM37855   2.264   7.087  12.099  0.5603 -0.1364  0.2639
10974PW       W37856   3.598   5.598   9.743  0.1381 -0.3932 -0.1881
10974PW      WP37857   3.590   5.693   9.846  0.8269  0.2658 -0.6888
10974PW      WM37858   3.619   5.714   9.667  0.3126 -0.2016  0.1385
10975PW       W37859   1.315   6.179   1.577  0.0513 -0.3750  0.2116
10975PW      WP37860   1.417   6.093   1.620  0.5930  0.2968  0.3806
10975PW      WM37861   1.394   6.237   1.677 -0.0125 -0.5947  0.3935
10976PW       W37862   4.282   8.189   0.521  0.1430  0.0133 -0.1757
10976PW      WP37863   4.312   8.178   0.385 -0.0242 -0.5738 -0.1773
10976PW      WM37864   4.176   8.111   0.474  0.0657  0.1701 -0.2647
10977PW       W37865   0.178   0.898   4.629  0.0063 -0.1413 -0.2009
10977PW      WP37866   0.152   0.988   4.733  0.1584 -0.0449 -0.2444
10977PW      WM37867   0.205   0.872   4.494 -0.1328  0.0463 -0.2680
10978PW       W37868   2.137   6.616  11.965  0.2131  0.0839 -0.0123
10978PW      WP37869   2.038   6.641  12.061  0.0700 -0.3822 -0.0239
10978PW      WM37870   2.048   6.609  11.858  0.0158 -0.0320  0.1558
10979PW       W37871   7.832   7.412   2.587  0.2608  0.4828 -0.3384
10979PW      WP37872   7.788   7.319   2.682  0.2457  0.4633 -0.3645
10979PW      WM37873   7.896   7.307   2.520 -0.1099  0.1356 -0.1670
10980PW       W37874   2.192   1.280   5.298  0.1418 -0.1692 -0.1738
10980PW      WP37875   2.053   1.294   5.305  0.1178 -0.3300 -0.2918
10980PW      WM37876   2.127   1.232   5.183 -0.2992 -0.5404  0.2114
10981PW       W37877  11.476  11.251  10.223  0.1209 -0.0993  0.1905
10981PW      WP37878  11.366  11.270  10.307 -0.2852 -0.5137 -0.2158
10981PW      WM37879  11.431  11.136  10.158 -0.1730 -0.1014  0.3882
10982PW       W37880   7.241   5.776  13.131  0.2491 -0.0279 -0.0258
10982PW      WP37881   7.339   5.676  13.132  0.2210 -0.0558  0.0690
10982PW      WM37882   7.120   5.722  13.178  0.0002  0.3176 -0.2512
10983PW       W37883   4.848  12.163  13.128 -0.1750 -0.4659  0.0450
10983PW      WP37884   4.761  12.191  13.022  0.1336 -0.3048 -0.1747
10983PW      WM37885   4.827  12.051  13.208 -0.1761 -0.4309  0.0944
10984PW       W37886   2.812   3.642  11.868 -0.4481 -0.2139 -0.3368
10984PW      WP37887   2.875   3.524  11.827 -0.0699 -0.2587  0.3100
10984PW      WM37888   2.815   3.779  11.841  0.5036 -0.0739  0.2395
10985PW       W37889   5.688   2.469   3.836  0.1405  0.0426  0.3408
10985PW      WP37890   5.759   2.372   3.765  0.1675 -0.2580  0.7598
10985PW      WM37891   5.563   2.488   3.775  0.3811  0.1462 -0.1533
10986PW       W37892   8.480   9.090  10.340 -0.1328  0.5700 -0.1711
10986PW      WP37893   8.556   9.034  10.237 -0.6530  0.0786 -0.3175
10986PW      WM37894   8.360   9.051  10.401 -0.0261 -0.3518 -0.4725
10987PW       W37895   7.041   7.509   4.380  0.2776 -0.2268  0.1107
10987PW      WP37896   6.937   7.506   4.474  0.2047 -0.3291  0.0285
10987PW      WM37897   7.006   7.420   4.277 -0.2019  0.2664 -0.1776
10988PW       W37898   3.003  10.206   4.941  0.0083 -0.0730  0.3141
10988PW      WP37899   2.972  10.321   5.014 -0.3634  0.1435 -0.1554
10988PW      WM37900   2.958  10.267   4.823  0.4442  0.3108  0.3332
10989PW       W37901   0.917   4.925   8.721  0.3042  0.1865 -0.3242
10989PW      WP37902   0.841   4.867   8.619 -0.1989  0.6323 -0.2235
10989PW      WM37903   1.036   4.941   8.793 -0.0708  0.3354  0.3004
10990PW       W37904   8.462   1.426   9.171  0.0809  0.2365  0.1018
10990PW      WP37905   8.581   1.465   9.234  0.1186 -0.3009  0.3903
10990PW      WM37906   8.382   1.478   9.069 -0.1984  0.1500  0.2710
10991PW       W37907   1.022   5.641   4.852  0.2362  0.2201  0.1407
10991PW      WP37908   1.029   5.507   4.895  0.2551  0.0758 -0.2909
10991PW      WM37909   1.025   5.558   4.965 -0.0044 -0.4407 -0.3095
10992PW       W37910   4.858   1.082  11.651  0.2753 -0.1837  0.1027
10992PW      WP37911   4.829   0.967  11.578  0.4954 -0.3407  0.2558
10992PW      WM37912   4.875   1.199  11.727  0.3299 -0.1090 -0.0223
10993PW       W37913   0.487   6.095   1.026 -0.0937 -0.1023 -0.2290
10993PW      WP37914   0.404   5.987   0.994 -0.2667 -0.0102 -0.1037
10993PW      WM37915   0.559   5.993   0.963  0.0745  0.0450 -0.2775
10994PW       W37916   3.579   8.002   8.959  0.1681  0.5373 -0.1229
10994PW      WP37917   3.558   7.906   8.859  0.3155  0.0537  0.2925
10994PW      WM37918   3.691   7.950   9.023  0.0113  0.0988 -0.1881
10995PW       W37919  10.449  10.268   4.877 -0.0287  0.0895 -0.3452
10995PW      WP37920  10.314  10.241   4.853 -0.1817  0.1307  0.3501
10995PW      WM37921  10.492  10.297   4.747 -0.0445 -0.0588 -0.3837
10996PW       W37922   1.397  10.380   0.612 -0.2332  0.0662 -0.1253
10996PW      WP37923   1.496  10.439   0.692 -0.4213  0.6206 -0.2740
10996PW      WM37924   1.503  10.365   0.522 -0.0829  0.0677  0.0483
10997PW       W37925   1.022   5.177   3.028 -0.0575  0.1609  0.1480
10997PW      WP37926   1.073   5.298   2.979  0.2513  0.0812  0.2658
10997PW      WM37927   0.952   5.286   3.082  0.1387  0.4922 -0.2436
10998PW       W37928   7.843   9.654   8.612 -0.5332 -0.0030 -0.2736
10998PW      WP37929   7.769   9.769   8.642 -0.0622  0.1658  0.3335
10998PW      WM37930   7.845   9.693   8.477  0.2555  0.3614 -0.1822
10999PW       W37931   2.470  11.787  11.620  0.2679  0.1333  0.3680
10999PW      WP37932   2.500  11.651  11.628  0.0144  0.0795  0.4323
10999PW      WM37933   2.591  11.826  11.561  0.0330  0.5529  0.1375
11000PW       W37934  10.242   5.481  12.297 -0.2709  0.2358  0.1333
11000PW      WP37935  10.161   5.413  12.205 -0.2583 -0.1383  0.3854
11000PW      WM37936  10.271   5.585  12.386  0.6186 -0.1417  0.3407
11001PW       W37937   7.342   7.633   2.555 -0.0162 -0.1471  0.0497
11001PW      WP37938   7.295   7.740   2.477 -0.1559 -0.3376 -0.1325
11001PW      WM37939   7.478   7.642   2.589 -0.0156 -0.2596  0.0800
11002PW       W37940  12.123   8.020   4.410 -0.0532  0.1936 -0.0388
11002PW      WP37941  12.067   7.892   4.414  0.4861 -0.0692 -0.3592
11002PW      WM37942  11.998   8.062   4.456 -0.1069 -0.3085  0.3208
11003PW       W37943   8.646  10.715   9.021 -0.0336 -0.2037 -0.0850
11003PW      WP37944   8.555  10.735   8.917 -0.4078 -0.3150  0.2085
11003PW      WM37945   8.764  10.741   8.951  0.0870 -0.8354 -0.1459
11004PW       W37946   5.742   4.158   4.243 -0.0368  0.1169  0.0945
11004PW      WP37947   5.713   4.259   4.151 -0.1002 -0.0373 -0.0582
11004PW      WM37948   5.730   4.022   4.276  0.2492 -0.0550 -0.4536
11005PW       W37949   5.027   4.057   1.246  0.2281 -0.0360 -0.1020
11005PW      WP37950   5.094   3.949   1.186 -0.2495 -0.5216  0.1890
11005PW      WM37951   5.063   4.118   1.125  0.3205 -0.0313 -0.0727
11006PW       W37952   3.058  11.971   3.928  0.2178 -0.1938 -0.0453
11006PW      WP37953   2.965  11.867   3.914 -0.1088  0.0516  0.2177
11006PW      WM37954   3.193  11.984   3.896  0.2638  0.7074  0.3630
11007PW       W37955   0.190  10.167   2.654  0.1729 -0.0803 -0.2183
11007PW      WP37956   0.088  10.151   2.749 -0.0214  0.4583 -0.3160
11007PW      WM37957   0.216  10.239   2.537  0.5126  0.3196  0.0863
11008PW       W37958  11.925   8.561  12.739  0.4696  0.3727  0.1087
11008PW      WP37959  11.925   8.669  12.828  0.1924  0.2002  0.3244
11008PW      WM37960  11.801   8.626  12.742  0.0233 -0.3303 -0.7454
11009PW       W37961   8.527   9.461   4.632  0.0961  0.2561  0.0053
11009PW      WP37962   8.593   9.535   4.731 -0.0938  0.2626  0.1293
11009PW      WM37963   8.590   9.408   4.518 -0.1145 -0.1522  0.0735
11010PW       W37964   9.231   8.762   2.899  0.0290  0.4247  0.2131
11010PW      WP37965   9.195   8.765   2.764  0.4838 -0.0272  0.0634
11010PW      WM37966   9.259   8.651   2.981  0.4325  0.1056 -0.3286
11011PW       W37967   2.751   8.199   3.663 -0.3190  0.0422 -0.4787
11011PW      WP37968   2.745   8.100   3.563 -0.2298 -0.3966 -0.0702
11011PW      WM37969   2.773   8.165   3.797  0.5294  0.3875 -0.5033
11012PW       W37970   1.430   0.441  11.918  0.0342 -0.1729  0.0885
11012PW      WP37971   1.467   0.485  11.790  0.0134 -0.3255  0.0289
11012PW      WM37972   1.375   0.476  12.042 -0.1701  0.0632 -0.0631
11013PW       W37973  11.332  11.490  13.003  0.1975 -0.1114  0.1973
11013PW      WP37974  11.312  11.359  12.956  0.2236  0.0645 -0.3410
11013PW      WM37975  11.287  11.605  12.937 -0.1166 -0.0515  0.5052
11014PW       W37976   6.935   0.481   2.587 -0.3266 -0.0733  0.0450
11014PW      WP37977   6.948   0.617   2.617 -0.4532  0.0415 -0.3920
11014PW      WM37978   6.932   0.418   2.713 -0.4518 -0.4990 -0.1605
11015PW       W37979  11.315   2.963   4.009 -0.0188  0.4850  0.2931
11015PW      WP37980  11.210   3.051   4.036 -0.5516 -0.0317  0.0268
11015PW      WM37981  11.369   2.899   3.896 -0.4411 -0.1262  0.4094
11016PW       W37982   7.494   0.556  11.573 -0.0793 -0.3405  0.4021
11016PW      WP37983   7.577   0.610  11.475 -0.4216 -0.2699  0.1429
11016PW      WM37984   7.453   0.655  11.663 -0.2986  0.2627 -0.3122
11017PW       W37985   2.255   5.083  10.508 -0.0341 -0.2558 -0.1330
11017PW      WP37986   2.391   5.055  10.527  0.1213  0.3786 -0.1969
11017PW      WM37987   2.206   5.199  10.570  0.0871 -0.2530 -0.0397
11018PW       W37988  11.092   8.864   8.821 -0.3269  0.4865 -0.0232
11018PW      WP37989  11.185   8.936   8.898  0.5658 -0.4864 -0.0855
11018PW      WM37990  10.952   8.859   8.821 -0.3778 -1.2731 -0.0602
11019PW       W37991   4.681  10.044   9.880 -0.1360 -0.1925  0.2112
11019PW      WP37992   4.788   9.971   9.932 -0.1930 -0.0598  0.5303
11019PW      WM37993   4.584   9.951   9.842  0.0636 -0.3398  0.0546
11020PW       W37994   1.245  10.482  10.918 -0.0339  0.0919  0.3654
11020PW      WP37995   1.194  10.583  10.834  0.5912 -0.0997 -0.2931
11020PW      WM37996   1.247  10.569  11.028 -0.3160  0.2138  0.2798
11021PW       W37997  11.960   1.933   2.768  0.3325  0.1526 -0.1543
11021PW      WP37998  11.827   1.954   2.805  0.3360  0.4911 -0.3169
11021PW      WM37999  11.994   1.935   2.632 -0.0727  0.2038 -0.2616
11022PW       W38000   6.576   8.668  11.491 -0.0223  0.0919  0.1825
11022PW      WP38001   6.622   8.640  11.621 -0.0901 -0.0787  0.1717
11022PW      WM38002   6.621   8.744  11.383 -0.0613 -0.0887  0.0364
11023PW       W38003   4.008   7.061  11.445  0.0981  0.1029 -0.1597
11023PW      WP38004   3.927   7.171  11.476 -0.1534 -0.0113 -0.3944
11023PW      WM38005   4.142   7.098  11.464  0.0216  0.0630  0.6137
11024PW       W38006   7.951  11.692  10.387 -0.0683 -0.0643  0.2215
11024PW      WP38007   7.837  11.611  10.383 -0.2885  0.2436  0.1150
11024PW      WM38008   8.019  11.814  10.396 -0.1254  0.0092 -0.2419
11025PW       W38009   3.652   8.763  11.297  0.0793  0.0673  0.2410
11025PW      WP38010   3.616   8.638  11.245  0.1761  0.2166 -0.2096
11025PW      WM38011   3.751   8.727  11.390  0.3946 -0.0422 -0.1234
11026PW       W38012   0.956   1.138   2.873  0.2831 -0.2515  0.1374
11026PW      WP38013   0.890   1.063   2.775 -0.0286 -0.0742  0.2040
11026PW      WM38014   1.030   1.021   2.888  0.2622 -0.2477  0.2799
11027PW       W38015   1.694   6.920   9.216  0.1949  0.1764  0.1034
11027PW      WP38016   1.771   7.037   9.224  0.0239  0.2735  0.4275
11027PW      WM38017   1.611   6.952   9.324  0.5240 -0.0760  0.4457
11028PW       W38018   4.308   4.588   0.444 -0.7565 -0.1866  0.2948
11028PW      WP38019   4.286   4.646   0.569 -0.1001 -0.1934  0.4308
11028PW      WM38020   4.425   4.561   0.517 -0.6095 -0.0013  0.1338
11029PW       W38021  10.950   6.877   0.832  0.0782  0.0649  0.6204
11029PW      WP38022  10.865   6.766   0.831  0.0348  0.0788 -0.0892
11029PW      WM38023  10.915   6.768   0.912  0.2469 -0.1483  0.4087
11030PW       W38024   0.769   6.857   8.723  0.1121  0.2565  0.5118
11030PW      WP38025   0.859   6.752   8.738  0.1988  0.2881  0.2470
11030PW      WM38026   0.794   6.995   8.729 -0.1946  0.3513 -0.0512
11031PW       W38027  11.313   2.771   2.190 -0.1908 -0.1751 -0.2417
11031PW      WP38028  11.401   2.761   2.081 -0.2720 -0.3634 -0.2925
11031PW      WM38029  11.187   2.719   2.221 -0.2638  0.1730  0.0734
11032PW       W38030   4.395   4.864   9.777  0.0397  0.0541  0.1721
11032PW      WP38031   4.294   4.844   9.873  0.1170  0.3427  0.3194
11032PW      WM38032   4.325   4.963   9.707  0.3828  0.2632  0.1129
11033PW       W38033   4.998  11.487   9.535  0.1576 -0.1148 -0.0807
11033PW      WP38034   5.065  11.457   9.654 -0.2103 -0.3414  0.0772
11033PW      WM38035   4.954  11.404   9.431  0.3033 -0.0327 -0.2099
11034PW       W38036   2.018   7.934  11.023 -0.0537  0.0133  0.1392
11034PW      WP38037   2.141   7.867  11.028  0.1691  0.3626 -0.2924
11034PW      WM38038   1.980   7.800  11.013  0.3826 -0.0958 -0.2117
11035PW       W38039  11.614  10.043   4.893 -0.1578 -0.5164  0.2337
11035PW      WP38040  11.572  10.176   4.904  0.9123 -0.0902 -0.1923
11035PW      WM38041  11.580   9.990   5.018 -0.1302 -0.1549  0.3996
11036PW       W38042  11.293   4.261   8.505 -0.0117 -0.2923 -0.2735
11036PW      WP38043  11.378   4.372   8.490  0.0486 -0.2968  0.0079
11036PW      WM38044  11.187   4.194   8.567 -0.0662 -0.0499 -0.0960
11037PW       W38045   1.895   6.378  10.956  0.1686  0.1343 -0.3103
11037PW      WP38046   1.769   6.394  10.896 -0.1770 -0.3066  0.2483
11037PW      WM38047   1.972   6.345  11.068 -0.1274  0.0786 -0.1197
11038PW       W38048   3.281   1.900   3.297  0.7170  0.1392 -0.0662
11038PW      WP38049   3.325   1.910   3.164 -0.1330  0.2788 -0.3625
11038PW      WM38050   3.267   2.039   3.304 -0.0312  0.0793  0.0226
11039PW       W38051   1.079   8.765  10.633  0.0901 -0.4857  0.0140
11039PW      WP38052   1.199   8.805  10.692  0.2189 -0.4852 -0.2407
11039PW      WM38053   1.139   8.718  10.515  0.2114  0.0539 -0.1532
11040PW       W38054   9.496   8.389  11.475 -0.2192  0.4122 -0.1627
11040PW      WP38055   9.474   8.309  11.362 -0.3242  0.3312 -0.0860
11040PW      WM38056   9.486   8.253  11.506  0.5065  0.3587 -0.0920
11041PW       W38057   4.690   0.255   1.575 -0.0236  0.3793 -0.2054
11041PW      WP38058   4.692   0.387   1.620 -0.0239  0.1281  0.6125
11041PW      WM38059   4.797   0.291   1.491 -0.1319 -0.3466 -0.7052
11042PW       W38060   4.807   9.130   9.984  0.3598  0.2665  0.0912
11042PW      WP38061   4.828   9.002  10.035  0.2678  0.0614 -0.3618
11042PW      WM38062   4.744   9.135   9.859 -0.2213  0.5650  0.3757
11043PW       W38063  10.338   0.737   2.540  0.2947  0.1625 -0.7508
11043PW      WP38064  10.210   0.681   2.532  0.4608 -0.3009 -0.3963
11043PW      WM38065  10.261   0.849   2.573 -0.0183 -0.2409  0.0294
11044PW       W38066   3.889   0.275  11.269  0.0863  0.0929  0.2151
11044PW      WP38067   3.818   0.379  11.209  0.1181  0.1259  0.2345
11044PW      WM38068   3.881   0.148  11.328  0.1948  0.2535  0.5916
11045PW       W38069  10.088   2.083  11.036 -0.3322  0.2664  0.4720
11045PW      WP38070  10.171   2.029  10.937 -0.8507 -0.1230  0.2253
11045PW      WM38071  10.031   2.073  10.909  0.4315 -0.3543  0.1334
11046PW       W38072   0.620   3.429   3.095 -0.3340  0.3588  0.0076
11046PW      WP38073   0.745   3.487   3.116 -0.1941  0.0153  0.1586
11046PW      WM38074   0.549   3.429   3.216  0.0088 -0.0572  0.2243
11047PW       W38075   5.342  10.597   2.002  0.1063 -0.0675 -0.0982
11047PW      WP38076   5.364  10.574   1.866  0.0846 -0.3596 -0.0541
11047PW      WM38077   5.360  10.735   1.984  0.3466 -0.0860 -0.0230
11048PW       W38078  11.411   1.000  10.706 -0.2146  0.4042  0.0148
11048PW      WP38079  11.517   1.031  10.793 -0.2009  0.0751  0.1238
11048PW      WM38080  11.337   0.955  10.596  0.1261  0.6213 -0.3173
11049PW       W38081   8.021   9.509   1.589  0.5377 -0.0061  0.2164
11049PW      WP38082   8.030   9.417   1.485 -0.1707  0.3362 -0.1892
11049PW      WM38083   7.942   9.409   1.647  0.2032 -0.1511 -0.4396
11050PW       W38084   8.599   8.267  11.661 -0.2498 -0.0753  0.1229
11050PW      WP38085   8.578   8.148  11.730 -0.3718 -0.0974  0.0487
11050PW      WM38086   8.604   8.332  11.537 -0.1434 -0.5647 -0.1418
11051PW       W38087   1.615   4.126   1.141 -0.0545 -0.4564  0.0511
11051PW      WP38088   1.667   4.001   1.178  0.3488 -0.3011  0.0431
11051PW      WM38089   1.517   4.207   1.198  0.7011 -0.2273  1.2135
11052PW       W38090   9.885   1.843   3.790 -0.0748  0.0026  0.6714
11052PW      WP38091   9.989   1.840   3.696 -0.1040  0.2533  0.6274
11052PW      WM38092   9.770   1.870   3.865 -0.2977  0.1533  0.2954
11053PW       W38093   6.068  11.009   2.191 -0.0702  0.1842 -0.3139
11053PW      WP38094   5.992  10.894   2.215 -0.2810  0.4022  0.1280
11053PW      WM38095   6.094  11.121   2.271 -0.2361  0.0963 -0.1336
11054PW       W38096   4.366   7.378   1.777 -0.0389  0.0428 -0.1474
11054PW      WP38097   4.257   7.311   1.835 -0.3209  0.4626 -0.1740
11054PW      WM38098   4.318   7.501   1.823  0.0821  0.1060 -0.1904
11055PW       W38099   1.850  10.810   3.264  0.0253  0.0456  0.0207
11055PW      WP38100   1.727  10.817   3.330  0.1207 -0.7152  0.3430
11055PW      WM38101   1.913  10.906   3.344  0.2233 -0.1348  0.0870
11056PW       W38102  11.797   1.045   3.197 -0.0158 -0.1024  0.0277
11056PW      WP38103  11.733   0.921   3.186 -0.0362 -0.1568  0.6194
11056PW      WM38104  11.910   1.018   3.275 -0.1961 -0.6947  0.1112
11057PW       W38105   3.545   8.357   1.678  0.2519 -0.3721  0.0704
11057PW      WP38106   3.650   8.439   1.635 -0.1804  0.2493  0.1373
11057PW      WM38107   3.443   8.394   1.589 -0.0843 -0.6767  0.3121
11058PW       W38108  11.002   8.303   9.649 -0.1116 -0.0071  0.4464
11058PW      WP38109  11.140   8.298   9.673 -0.0661 -0.2067  0.1724
11058PW      WM38110  10.958   8.171   9.663 -0.3179 -0.0958 -0.6036
11059PW       W38111  -0.032   6.670  12.528 -0.0384  0.1206 -0.0425
11059PW      WP38112   0.094   6.726  12.504 -0.0891  0.5196  0.5436
11059PW      WM38113   0.061   6.567  12.510 -0.4609 -0.2366 -0.3102
11060PW       W38114   0.810   9.361  11.338  0.4794  0.0115  0.2164
11060PW      WP38115   0.819   9.439  11.454 -0.0023 -0.1336  0.3644
11060PW      WM38116   0.820   9.467  11.247  0.2753 -0.1610 -0.0117
11061PW       W38117  10.914   1.901  11.931  0.2121 -0.2704  0.1340
11061PW      WP38118  10.849   1.778  11.944  0.1738 -0.2550  0.0909
11061PW      WM38119  10.831   1.929  11.822 -0.2983  0.3489  0.6364
11062PW       W38120   5.447  10.136   9.219 -0.3825 -0.0178  0.4244
11062PW      WP38121   5.570  10.151   9.155 -0.6761  0.1499 -0.1286
11062PW      WM38122   5.488  10.002   9.219 -0.0019  0.0896  0.1101
11063PW       W38123   2.383  11.611   3.875 -0.1298  0.1777 -0.1168
11063PW      WP38124   2.449  11.587   3.997 -0.2937 -0.2447 -0.1001
11063PW      WM38125   2.434  11.721   3.806 -0.2149  0.2222 -0.1085
11064PW       W38126   7.977   2.454   1.707  0.3219  0.5259  0.0449
11064PW      WP38127   7.947   2.477   1.842 -0.3940 -0.2535  0.0545
11064PW      WM38128   8.105   2.398   1.716  0.0933 -0.0009  0.1484
11065PW       W38129   5.203   4.712  12.740 -0.0713 -0.4581 -0.0432
11065PW      WP38130   5.066   4.739  12.757 -0.0057 -0.2343  0.1549
11065PW      WM38131   5.216   4.689  12.602 -0.0145 -0.1601 -0.0891
11066PW       W38132  10.319  11.419   0.313  0.1353  0.1421  0.0777
11066PW      WP38133  10.240  11.493   0.224  0.4834 -0.2225 -0.5723
11066PW      WM38134  10.250  11.541   0.312  0.2682  0.2201 -0.3224
11067PW       W38135   9.530   5.529  10.738 -0.0443  0.0719 -0.2894
11067PW      WP38136   9.545   5.392  10.714  0.4375  0.0487  0.0826
11067PW      WM38137   9.573   5.660  10.757 -0.0267  0.0593 -0.2409
11068PW       W38138   0.264   6.199  12.314 -0.2192 -0.1306  0.3409
11068PW      WP38139   0.225   6.294  12.219  0.6111 -0.2346 -0.1520
11068PW      WM38140   0.377   6.127  12.354 -0.3020 -0.5063 -0.0638
11069PW       W38141   6.225   7.676  11.310 -0.0268 -0.3020 -0.3840
11069PW      WP38142   6.165   7.560  11.360  0.1426 -0.2187  0.0367
11069PW      WM38143   6.331   7.596  11.353  0.2416  0.1411 -0.1760
11070PW       W38144   8.116  10.290   3.248 -0.3715  0.1662  0.2470
11070PW      WP38145   8.233  10.300   3.325 -0.2059 -0.0239  0.0313
11070PW      WM38146   8.024  10.383   3.297 -0.2851  0.1329  0.4789
11071PW       W38147   6.621  11.799   4.103  0.1837 -0.3330  0.2636
11071PW      WP38148   6.610  11.729   3.982 -0.1192  0.2270 -0.0530
11071PW      WM38149   6.705  11.856   4.200  0.0055 -0.2585  0.3786
11072PW       W38150  11.015   1.412  11.915  0.1415  0.1849 -0.0874
11072PW      WP38151  11.054   1.370  11.788 -0.5053 -0.4115 -0.1205
11072PW      WM38152  10.908   1.495  11.879  0.0148 -0.0496 -0.2688
11073PW       W38153  10.481   9.182   1.593 -0.1307  0.5482 -0.0814
11073PW      WP38154  10.474   9.246   1.469  0.1099  0.1891 -0.2889
11073PW      WM38155  10.582   9.276   1.613 -0.5336  0.8827  0.5717
11074PW       W38156   9.043  11.630   9.298  0.3872  0.2302 -0.1240
11074PW      WP38157   8.955  11.536   9.352  0.0727  0.2433 -0.5838
11074PW      WM38158   8.955  11.734   9.267 -0.1436 -0.2485 -0.3067
11075PW       W38159   3.581   4.195   1.040 -0.3309 -0.1626 -0.2553
11075PW      WP38160   3.720   4.181   1.030 -0.2705 -0.1237  0.3444
11075PW      WM38161   3.448   4.232   1.064 -0.1727  0.3321 -0.0772
11076PW       W38162   2.996   0.900   1.405 -0.0772  0.1139 -0.0053
11076PW      WP38163   3.133   0.915   1.432 -0.1296  0.2498  0.1955
11076PW      WM38164   2.932   0.795   1.339 -0.3674  0.5278 -0.4107
11077PW       W38165   1.455   7.301   4.956  0.1034 -0.5908  0.0585
11077PW      WP38166   1.325   7.339   4.989  0.2782  0.0550  0.0755
11077PW      WM38167   1.590   7.313   4.993  0.1242  0.4033 -0.1969
11078PW       W38168   7.823   8.919   4.207 -0.7089  0.2049  0.2666
11078PW      WP38169   7.888   8.993   4.108 -0.4144  0.1207  0.3915
11078PW      WM38170   7.831   8.917   4.347  0.1758  0.1503  0.2410
11079PW       W38171   6.719   2.248   2.076  0.3132  0.2252 -0.3514
11079PW      WP38172   6.729   2.263   2.214 -0.0647  0.2058 -0.3182
11079PW      WM38173   6.653   2.343   1.997 -0.1743  0.5173  0.3616
11080PW       W38174   3.405  12.012   2.746 -0.0224  0.1738  0.0543
11080PW      WP38175   3.513  11.925   2.720  0.0356  0.2860 -0.0888
11080PW      WM38176   3.322  11.900   2.758  0.0084  0.0259 -0.7702
11081PW       W38177   8.472   2.843   8.279  0.2182  0.3860 -0.4045
11081PW      WP38178   8.450   2.934   8.383 -0.1897 -0.0026 -0.1294
11081PW      WM38179   8.479   2.733   8.192 -0.3401  0.1851 -0.2191
11082PW       W38180   2.815   3.662   1.947 -0.0844  0.4172 -0.4776
11082PW      WP38181   2.737   3.588   1.859 -0.2651  0.3637 -0.2776
11082PW      WM38182   2.754   3.700   2.068  0.2132  0.0542 -0.1995
11083PW       W38183  11.506   7.322   0.319  0.2703  0.2030 -0.2425
11083PW      WP38184  11.444   7.445   0.293 -0.2140  0.0776  0.2279
11083PW      WM38185  11.593   7.238   0.390 -0.0069  0.1038 -0.0121
11084PW       W38186   1.953   7.844   2.111  0.1065 -0.2330  0.0669
11084PW      WP38187   1.905   7.722   2.161 -0.0862 -0.2684 -0.1892
11084PW      WM38188   2.001   7.961   2.050 -0.0050 -0.1117  0.2097
11085PW       W38189   0.418   9.628   5.105 -0.0164 -0.3958 -0.0738
11085PW      WP38190   0.366   9.754   5.137  0.4216 -0.2077 -0.0633
11085PW      WM38191   0.544   9.578   5.139  0.0323 -0.1818  0.0688
11086PW       W38192   6.496  10.344   3.313 -0.2560  0.0162  0.2221
11086PW      WP38193   6.520  10.466   3.377  0.3670 -0.2187  0.4718
11086PW      WM38194   6.410  10.437   3.253 -0.0195  0.4034  0.4628
11087PW       W38195   6.305   7.136   1.897 -0.0352 -0.0598 -0.0665
11087PW      WP38196   6.171   7.100   1.885 -0.1832  0.3434  0.2415
11087PW      WM38197   6.384   7.233   1.961 -0.3338  0.2208 -0.1107
11088PW       W38198   8.542  10.210   0.749  0.0746  0.4138 -0.3160
11088PW      WP38199   8.654  10.137   0.792 -0.0642  0.3725 -0.0150
11088PW      WM38200   8.448  10.292   0.813  0.0336  0.1817 -0.0693
11089PW       W38201   6.530   4.666  11.850  0.0247  0.0637 -0.1754
11089PW      WP38202   6.644   4.585  11.847  0.3445  0.4932 -0.1492
11089PW      WM38203   6.537   4.759  11.955 -0.5189 -0.0810  0.0033
11090PW       W38204   8.869   7.619   0.699  0.1009  0.0681  0.3147
11090PW      WP38205   8.831   7.732   0.625 -0.2756 -0.3439 -0.1514
11090PW      WM38206   8.949   7.508   0.672  0.5132  0.3292  0.4104
11091PW       W38207   2.059   5.152  12.559 -0.4097 -0.2001  0.6200
11091PW      WP38208   2.142   5.082  12.648  0.1746 -0.2649  0.0573
11091PW      WM38209   2.052   5.058  12.456  0.0388  0.3124  0.0902
11092PW       W38210   7.452   5.285  12.935  0.1992 -0.1243  0.0443
11092PW      WP38211   7.327   5.345  12.948  0.0569 -0.2667 -0.5327
11092PW      WM38212   7.546   5.364  13.003  0.0279  0.1475 -0.0279
11093PW       W38213   8.571   3.743   0.129 -0.2805  0.2574  0.2254
11093PW      WP38214   8.536   3.633   0.050 -0.2863  0.3826  0.0483
11093PW      WM38215   8.557   3.824   0.242 -0.4292  0.5078  0.0332
11094PW       W38216  10.963   5.911   3.322 -0.3209  0.0198  0.1280
11094PW      WP38217  11.001   5.980   3.438 -0.0851 -0.0959  0.1203
11094PW      WM38218  10.924   5.968   3.200  0.0110 -0.0159  0.0009
11095PW       W38219   9.404   3.337   0.575  0.4495 -0.1160 -0.0139
11095PW      WP38220   9.437   3.353   0.710 -0.0879 -0.0524  0.1219
11095PW      WM38221   9.269   3.365   0.553  0.2653 -0.2800  0.7508
11096PW       W38222  10.216   5.447   5.474 -0.0240 -0.0833  0.1360
11096PW      WP38223  10.167   5.541   5.382 -0.4115 -0.3143  0.0987
11096PW      WM38224  10.202   5.319   5.419 -0.3229 -0.2455  0.5643
11097PW       W38225   1.061  11.532   3.135  0.2286 -0.1828  0.0642
11097PW      WP38226   1.062  11.474   3.008  0.2479  0.1041 -0.0692
11097PW      WM38227   0.929  11.502   3.170  0.1757  0.1427  0.1584
11098PW       W38228   2.571   9.589  13.307  0.2207  0.5234  0.1889
11098PW      WP38229   2.710   9.576  13.310  0.2090  0.3816  0.1635
11098PW      WM38230   2.508   9.505  13.213  0.3854  0.1416  0.4078
11099PW       W38231  12.126   2.537   1.057  0.1747 -0.2666 -0.2917
11099PW      WP38232  12.040   2.444   1.116 -0.0539  0.0359 -0.1285
11099PW      WM38233  12.189   2.662   1.063 -0.5574  0.1206  0.1892
11100PW       W38234   9.474   2.010   3.694 -0.0869 -0.0716  0.0322
11100PW      WP38235   9.583   2.033   3.780  0.0362  0.2244 -0.1928
11100PW      WM38236   9.447   1.883   3.747 -0.3416  0.0897  0.3021
11101PW       W38237   5.222   0.760   9.585 -0.3334  0.0858 -0.2365
11101PW      WP38238   5.323   0.796   9.495  0.0312 -0.3763 -0.0311
11101PW      WM38239   5.184   0.628   9.610 -0.0743  0.0637  0.0595
11102PW       W38240   0.123   4.663   2.507 -0.0761 -0.2808 -0.3341
11102PW      WP38241   0.255   4.649   2.463 -0.0672 -0.1988 -0.3334
11102PW      WM38242   0.066   4.550   2.567 -0.3165 -0.1754 -0.3548
11103PW       W38243   8.872   5.702   2.117 -0.4521 -0.3497  0.0419
11103PW      WP38244   8.829   5.834   2.134  0.1316 -0.1347 -0.0494
11103PW      WM38245   8.997   5.696   2.180 -0.2349  0.1021 -0.3202
11104PW       W38246   4.029   1.673   3.637  0.2081 -0.1278  0.5135
11104PW      WP38247   4.125   1.716   3.545 -0.6616  0.6153 -0.1367
11104PW      WM38248   3.991   1.780   3.719  0.0153 -0.0241  0.2954
11105PW       W38249  11.728   5.003   9.094 -0.1505 -0.0244  0.0376
11105PW      WP38250  11.839   4.988   9.177  0.1453 -0.2935 -0.3889
11105PW      WM38251  11.716   4.942   9.220 -0.0535 -0.1474 -0.0123
11106PW       W38252   3.147  10.441  11.057  0.0602  0.0249 -0.2071
11106PW      WP38253   3.198  10.497  11.175 -0.6958  0.3847 -0.0201
11106PW      WM38254   3.120  10.569  11.007 -0.2865  0.0610  0.0482
11107PW       W38255   2.612   4.776  10.079  0.2585  0.4351 -0.0355
11107PW      WP38256   2.729   4.732  10.016  0.1049 -0.1058  0.0301
11107PW      WM38257   2.705   4.673  10.064 -0.3187 -0.0655 -0.3804
11108PW       W38258   9.660   6.765   2.873  0.4563 -0.0656 -0.0395
11108PW      WP38259   9.614   6.896   2.856  0.3357 -0.1677 -0.5803
11108PW      WM38260   9.704   6.751   2.741  0.1268 -0.5919 -0.1074
11109PW       W38261   4.264   6.028  11.916  0.1873 -0.1124 -0.0554
11109PW      WP38262   4.264   5.903  11.979  0.2222  0.0347  0.2495
11109PW      WM38263   4.400   6.052  11.942  0.4433 -0.5596 -0.8158
11110PW       W38264   9.795   0.251  11.411  0.3629 -0.2139 -0.1543
11110PW      WP38265   9.808   0.265  11.272 -0.2138 -0.1510 -0.2131
11110PW      WM38266   9.909   0.262  11.492  0.1388 -0.0581  0.1480
11111PW       W38267  11.375  10.788   1.374  0.0025  0.0645  0.0499
11111PW      WP38268  11.407  10.789   1.238  0.3313  0.0856  0.1232
11111PW      WM38269  11.254  10.806   1.443  0.2691  0.7726  0.3782
11112PW       W38270   8.666   0.652  10.502  0.2133  0.1169  0.0479
11112PW      WP38271   8.541   0.668  10.563  0.0697  0.1176 -0.2374
11112PW      WM38272   8.652   0.517  10.537 -0.3388  0.0850 -0.2481
11113PW       W38273  12.181   4.911   1.009 -0.2273  0.0137  0.4743
11113PW      WP38274  12.070   4.918   0.924  0.2653  0.0474 -0.2049
11113PW      WM38275  12.144   5.016   0.924  0.2537  0.0971  0.3510
11114PW       W38276   7.083   3.556  11.425 -0.1128 -0.1114 -0.2005
11114PW      WP38277   6.945   3.540  11.405 -0.1673  0.2470 -0.1397
11114PW      WM38278   7.183   3.566  11.328 -0.0845  0.4647 -0.1309
11115PW       W38279   5.858   0.781  11.235 -0.4366 -0.0960 -0.3705
11115PW      WP38280   5.742   0.845  11.279 -0.0730  0.3142  0.0398
11115PW      WM38281   5.856   0.642  11.217 -0.0607 -0.0886 -0.5102
11116PW       W38282   4.680   6.027  12.146 -0.2993 -0.3476 -0.2183
11116PW      WP38283   4.626   6.146  12.095  0.1797 -0.2786 -0.6040
11116PW      WM38284   4.796   5.948  12.154  0.1153  0.2766  0.6234
11117PW       W38285   1.042   1.144   9.848  0.0040 -0.0281 -0.1974
11117PW      WP38286   0.977   1.021   9.838  0.2855 -0.2065  0.0780
11117PW      WM38287   1.008   1.069   9.734 -0.3897 -0.5060  0.2089
11118PW       W38288   1.579  12.143  13.259 -0.0895  0.1107  0.1994
11118PW      WP38289   1.571  12.225  13.373 -0.4028  0.6272 -0.1691
11118PW      WM38290   1.646  12.022  13.281 -0.0766  0.0263 -0.2488
11119PW       W38291  10.319   7.449  13.283 -0.0811 -0.4810 -0.2595
11119PW      WP38292  10.274   7.475  13.153 -0.0136  0.4163 -0.1344
11119PW      WM38293  10.258   7.323  13.283 -0.2748 -0.3906 -0.4377
11120PW       W38294  10.186   8.594   2.346  0.1145 -0.7187  0.0704
11120PW      WP38295  10.205   8.533   2.222  0.1222 -0.1066 -0.2488
11120PW      WM38296  10.108   8.701   2.392  0.2842 -0.5631  0.0027
11121PW       W38297   2.957   3.732   4.435  0.1629 -0.3382 -0.2090
11121PW      WP38298   2.893   3.745   4.558 -0.0535 -0.1514 -0.3357
11121PW      WM38299   2.908   3.697   4.308 -0.2545 -0.1532 -0.1075
11122PW       W38300   1.529   2.142   2.016 -0.0030  0.1185 -0.3055
11122PW      WP38301   1.392   2.146   2.041  0.0278 -0.2890 -0.0182
11122PW      WM38302   1.580   2.101   1.893 -0.3161 -0.0054 -0.3989
11123PW       W38303   7.023   4.348  11.034 -0.2776  0.2119  0.0012
11123PW      WP38304   6.918   4.256  11.040 -0.1479  0.0519 -0.1045
11123PW      WM38305   7.017   4.464  11.112 -0.0628  0.1455  0.1204
11124PW       W38306   6.918   7.452   0.098  0.0734 -0.1704 -0.2279
11124PW      WP38307   6.794   7.400   0.060  0.1529 -0.2454 -0.3910
11124PW      WM38308   7.021   7.544   0.075 -0.0940 -0.0209 -0.3939
11125PW       W38309   4.387  11.701   4.963 -0.2280  0.6879 -0.3083
11125PW      WP38310   4.476  11.765   5.050  0.2961 -0.2961 -0.0482
11125PW      WM38311   4.304  11.724   5.073  0.1898 -0.0800  0.2201
11126PW       W38312   5.784   9.790   9.037 -0.0320  0.1716 -0.0406
11126PW      WP38313   5.673   9.823   8.958 -0.1943  0.2702  0.2179
11126PW      WM38314   5.708   9.678   9.074  0.1872  0.0689  0.1115
11127PW       W38315   9.906   7.275   9.936  0.1958  0.4223  0.0913
11127PW      WP38316   9.975   7.280   9.814  0.9219  0.3071  0.4690
11127PW      WM38317   9.984   7.193  10.019  0.1071  0.1999 -0.0397
11128PW       W38318   0.131   7.370  12.072  0.0349  0.0631 -0.3964
11128PW      WP38319   0.175   7.495  12.116 -0.1887  0.0175 -0.0186
11128PW      WM38320   0.059   7.260  12.121  0.1087  0.2429  0.1459
11129PW       W38321   8.004   7.580   4.211  0.0557 -0.3026  0.1965
11129PW      WP38322   7.933   7.485   4.137 -0.3063  0.2107 -0.1518
11129PW      WM38323   8.053   7.701   4.160 -0.0088 -0.4500 -0.2320
11130PW       W38324   1.170   5.636  11.132 -0.0748 -0.1281  0.4417
11130PW      WP38325   1.273   5.697  11.204 -0.1327 -0.2489  0.6298
11130PW      WM38326   1.037   5.665  11.097  0.0977 -0.1586 -0.3089
11131PW       W38327   2.121   7.907  11.484  0.0900 -0.0811  0.0399
11131PW      WP38328   2.039   7.995  11.411 -0.5496 -0.1789  0.5862
11131PW      WM38329   2.184   8.029  11.514 -0.1789  0.0134  0.2516
11132PW       W38330   9.975   0.978  10.981 -0.1383  0.2850  0.2791
11132PW      WP38331  10.037   1.064  11.072  0.1529  0.4732 -0.0800
11132PW      WM38332   9.883   1.084  10.985 -0.4191  0.1008 -0.4672
11133PW       W38333   3.895   6.811   3.761  0.0182 -0.2343  0.1832
11133PW      WP38334   3.953   6.938   3.770  0.0720 -0.2809  0.5807
11133PW      WM38335   3.770   6.747   3.758 -0.0677 -0.0629 -0.1524
11134PW       W38336   1.663   4.725  12.320 -0.3588 -0.1715 -0.1042
11134PW      WP38337   1.637   4.606  12.389  0.5278  0.0560  0.7344
11134PW      WM38338   1.590   4.837  12.359 -0.0421  0.1861 -0.4922
11135PW       W38339   7.052   0.234  11.794 -0.1719 -0.1354  0.3657
11135PW      WP38340   6.945   0.311  11.842 -0.4135 -0.0283 -0.2880
11135PW      WM38341   7.160   0.225  11.882  0.0118 -0.3629  0.1256
11136PW       W38342   2.437   8.452  12.607 -0.1210 -0.1735 -0.0777
11136PW      WP38343   2.438   8.579  12.666 -0.0253 -0.3001  0.2019
11136PW      WM38344   2.386   8.449  12.477 -0.1408 -0.3404 -0.0671
11137PW       W38345   8.937  10.903   2.448 -0.1513 -0.0768  0.1194
11137PW      WP38346   8.898  10.785   2.511 -0.0935 -0.2056 -0.0811
11137PW      WM38347   8.912  11.031   2.396 -0.1809  0.0053  0.3329
11138PW       W38348   5.936   2.237  10.008 -0.1080  0.0187  0.1561
11138PW      WP38349   5.968   2.255  10.143  0.1169 -0.0202  0.1107
11138PW      WM38350   6.040   2.163   9.949  0.1491  0.4357  0.0698
11139PW       W38351   8.727   9.416  13.069  0.2903  0.2893 -0.3336
11139PW      WP38352   8.612   9.440  12.994 -0.2617 -1.0015 -0.0525
11139PW      WM38353   8.645   9.350  13.162  0.1063 -0.0413 -0.7174
11140PW       W38354   8.516  11.543  13.021 -0.1205  0.0152 -0.2742
11140PW      WP38355   8.496  11.618  12.905 -0.1207 -0.1209 -0.3629
11140PW      WM38356   8.608  11.476  13.103 -0.2313 -0.1041 -0.2452
11141PW       W38357   2.198   0.912  12.173 -0.2244 -0.3852 -0.5744
11141PW      WP38358   2.177   0.980  12.053  0.3410  0.0662 -0.4350
11141PW      WM38359   2.311   0.834  12.146 -0.2060 -0.4396 -0.3511
11142PW       W38360   7.326   7.827   8.440  0.0974 -0.1482  0.4436
11142PW      WP38361   7.376   7.700   8.405  0.1850 -0.0392  0.1546
11142PW      WM38362   7.418   7.894   8.521  0.1421 -0.2670  0.4926
11143PW       W38363   0.849   8.315   4.302 -0.1519  0.3072  0.2646
11143PW      WP38364   0.873   8.270   4.172 -0.1491  0.3533  0.2493
11143PW      WM38365   0.722   8.264   4.330 -0.0247  0.0434  0.3788
11144PW       W38366   6.257   5.192  10.326  0.0586 -0.2566 -0.0273
11144PW      WP38367   6.165   5.181  10.431  0.1139  0.4127  0.1153
11144PW      WM38368   6.311   5.218  10.453  0.3955 -0.0699 -0.1996
11145PW       W38369   8.178  11.610   4.908 -0.1889 -0.2642  0.3052
11145PW      WP38370   8.224  11.702   5.003  0.1104 -0.2466  0.1488
11145PW      WM38371   8.148  11.714   4.820 -0.3371 -0.4775  0.0956
11146PW       W38372   2.967   4.692   5.351 -0.2957 -0.4297  0.1015
11146PW      WP38373   2.831   4.710   5.325 -0.3459 -0.0213  0.5591
11146PW      WM38374   3.079   4.753   5.293 -0.4331  0.0082  0.2742
11147PW       W38375   1.982   6.871   5.429  0.1514 -0.0678  0.0204
11147PW      WP38376   1.859   6.804   5.419 -0.0188  0.2316  0.0459
11147PW      WM38377   1.967   6.979   5.341  0.5036  0.0687  0.1215
11148PW       W38378   6.081   2.902   4.909 -0.0323 -0.0479  0.1981
11148PW      WP38379   6.102   2.914   5.047 -0.2804 -0.1505  0.2474
11148PW      WM38380   5.977   2.912   4.815  0.0569  0.0406  0.1070
11149PW       W38381  11.845   2.430   4.361 -0.2073 -0.1568  0.3882
11149PW      WP38382  11.962   2.474   4.423 -0.0495 -0.4340  0.2970
11149PW      WM38383  11.717   2.373   4.361 -0.0085 -0.6586 -0.1539
11150PW       W38384  10.328   1.761  10.600 -0.3435  0.0874 -0.0056
11150PW      WP38385  10.376   1.698  10.715 -0.1447  0.0007 -0.1330
11150PW      WM38386  10.206   1.706  10.561 -0.4301 -0.0292  0.4066
11151PW       W38387   9.561   0.491   0.578 -0.1913  0.0632  0.0342
11151PW      WP38388   9.485   0.383   0.531 -0.1276  0.0295  0.0081
11151PW      WM38389   9.584   0.621   0.625 -0.0345  0.2227 -0.4512
11152PW       W38390   8.100   9.977   1.358 -0.3290  0.1980 -0.0436
11152PW      WP38391   8.120  10.082   1.268 -0.2274  0.1666 -0.0579
11152PW      WM38392   8.227   9.978   1.416 -0.3174  0.3598 -0.0681
11153PW       W38393   8.574   5.122   3.994 -0.0050 -0.2239  0.0448
11153PW      WP38394   8.493   5.061   4.091 -0.0301 -0.2198  0.0262
11153PW      WM38395   8.521   5.113   3.865  0.4819  0.3604 -0.2186
11154PW       W38396   7.812   8.962   4.656 -0.4553 -0.4874 -0.1790
11154PW      WP38397   7.863   8.883   4.552  0.3280  0.2002 -0.3711
11154PW      WM38398   7.757   9.087   4.628  0.7036  0.2650  0.5051
11155PW       W38399   5.189  10.531   0.228  0.2992  0.2516 -0.2435
11155PW      WP38400   5.053  10.506   0.253  0.3132  0.1247 -0.2871
11155PW      WM38401   5.164  10.655   0.287 -0.2727 -0.0991  0.3232
11156PW       W38402  10.691   9.108  11.182 -0.0681  0.1049  0.3104
11156PW      WP38403  10.591   9.030  11.122  0.5346 -0.2679 -0.2939
11156PW      WM38404  10.678   8.980  11.238  0.0637  0.1630  0.4770
11157PW       W38405   0.422   1.558   2.765  0.0900  0.3938 -0.1076
11157PW      WP38406   0.321   1.550   2.669  0.1990 -0.5095 -0.1927
11157PW      WM38407   0.429   1.422   2.730  0.2077  0.4507 -0.3130
11158PW       W38408  10.420   1.821   2.578  0.0924  0.1684 -0.2009
11158PW      WP38409  10.329   1.848   2.681  0.1099 -0.6574  0.0694
11158PW      WM38410  10.532   1.801   2.659 -0.0511 -0.1481 -0.0685
11159PW       W38411   1.064   6.792   3.960 -0.0971  0.2721 -0.1623
11159PW      WP38412   1.074   6.928   3.929  0.3778  0.2917  0.0335
11159PW      WM38413   1.174   6.704   3.951 -0.2005  0.0886  0.2416
11160PW       W38414   1.514   6.056   3.899 -0.7082 -0.2659  0.4316
11160PW      WP38415   1.422   6.112   3.810  0.0719  0.7452  0.1758
11160PW      WM38416   1.572   6.075   4.025  0.2230 -0.0723  0.0147
11161PW       W38417  11.560   9.552   5.040 -0.2809  0.5060 -0.1934
11161PW      WP38418  11.653   9.481   4.963 -0.5536  0.6329 -0.6607
11161PW      WM38419  11.682   9.606   4.998 -0.1338  0.2875 -0.0606
11162PW       W38420  12.060   2.127  12.751  0.0201 -0.2423  0.0572
11162PW      WP38421  12.145   2.234  12.720 -0.4468  0.1581  0.1044
11162PW      WM38422  12.027   2.020  12.667  0.4466 -0.0683 -0.3568
11163PW       W38423   3.499   7.681   2.287  0.5245  0.5549  0.4033
11163PW      WP38424   3.571   7.575   2.342  0.5020  0.2577 -0.1057
11163PW      WM38425   3.507   7.747   2.163 -0.0222  0.0346  0.0636
11164PW       W38426   5.860   6.323   4.505 -0.0993 -0.0718 -0.2182
11164PW      WP38427   5.907   6.450   4.541  0.1142 -0.2802  0.2872
11164PW      WM38428   5.959   6.259   4.430 -0.3217 -0.5226 -0.1428
11165PW       W38429   0.387   3.925   7.975  0.4198  0.3527  0.2530
11165PW      WP38430   0.252   3.928   8.011  0.2949 -0.6423  0.0176
11165PW      WM38431   0.325   3.837   8.065 -0.3001  0.0472 -0.4689
11166PW       W38432  11.054  10.724   3.951 -0.1832  0.3207 -0.0127
11166PW      WP38433  10.918  10.723   3.983 -0.1027  0.1873  0.3457
11166PW      WM38434  11.099  10.823   3.863  0.3064 -0.0818 -0.2411
11167PW       W38435   4.758  10.481  12.376 -0.0916  0.2125 -0.1630
11167PW      WP38436   4.761  10.389  12.270 -0.0071 -0.3253  0.2806
11167PW      WM38437   4.890  10.524  12.386  0.0684 -0.3313  0.4680
11168PW       W38438   6.708   9.697  12.305  0.0507  0.3755  0.1929
11168PW      WP38439   6.623   9.736  12.409 -0.3243  0.5729 -0.1737
11168PW      WM38440   6.845   9.668  12.302 -0.0506 -0.1814  0.2995
11169PW       W38441  11.354   5.676   2.614 -0.1652 -0.2397  0.6863
11169PW      WP38442  11.466   5.758   2.597 -0.3267 -0.0968  0.2347
11169PW      WM38443  11.350   5.536   2.604  0.4630 -0.2394 -0.1509
11170PW       W38444  11.117   2.154   2.608 -0.4090 -0.1541 -0.0977
11170PW      WP38445  11.072   2.027   2.571 -0.1870 -0.3777  0.3586
11170PW      WM38446  11.151   2.151   2.744  0.2954  0.3808 -0.2352
11171PW       W38447   6.900   5.517  12.275  0.1181  0.0082 -0.0162
11171PW      WP38448   6.926   5.625  12.360  0.0879 -0.0005  0.0040
11171PW      WM38449   6.945   5.556  12.148 -0.1888  0.5925  0.0404
11172PW       W38450   5.017   3.218   9.196 -0.0901  0.3444 -0.0134
11172PW      WP38451   5.117   3.308   9.237 -0.0078  0.2960 -0.1067
11172PW      WM38452   4.947   3.108   9.245 -0.1182  0.3122 -0.1237
11173PW       W38453   6.383   3.873  13.123 -0.3580 -0.0394 -0.4034
11173PW      WP38454   6.481   3.794  13.061 -0.0050  0.2409 -0.2201
11173PW      WM38455   6.249   3.835  13.131 -0.2849 -0.2669 -0.2000
11174PW       W38456   0.878   9.865  11.340  0.2013  0.1854 -0.5834
11174PW      WP38457   0.774   9.778  11.303 -0.5528  0.7642  0.0054
11174PW      WM38458   0.855   9.998  11.379 -0.1576  0.0293 -0.2139
11175PW       W38459   6.057   5.361   0.079  0.1939  0.3983 -0.2419
11175PW      WP38460   6.086   5.246   0.153 -0.5031  0.1599 -0.3117
11175PW      WM38461   5.936   5.386   0.013  0.1697  0.1092 -0.3116
11176PW       W38462   4.162   1.382   1.219 -0.6527  0.0075  0.6357
11176PW      WP38463   4.056   1.371   1.128 -0.5679  0.6696  0.4297
11176PW      WM38464   4.202   1.480   1.311 -0.2766 -0.1804  0.6810
11177PW       W38465   1.477   2.695  10.605 -0.1179 -0.4219 -0.1243
11177PW      WP38466   1.551   2.683  10.723  0.1382 -0.3602 -0.2729
11177PW      WM38467   1.556   2.740  10.711 -0.0085  0.3460 -0.4930
11178PW       W38468  11.227   7.178  13.187  0.0456  0.0575 -0.2501
11178PW      WP38469  11.189   7.138  13.316 -0.3405  0.2705 -0.2878
11178PW      WM38470  11.088   7.194  13.177 -0.0390 -0.3646  0.0906
11179PW       W38471   1.524   2.833   3.512 -0.1118  0.1611 -0.1516
11179PW      WP38472   1.557   2.742   3.411 -0.5132  0.0485 -0.1909
11179PW      WM38473   1.465   2.955   3.546 -0.1336  0.0772  0.1235
11180PW       W38474   6.020   5.445   3.513 -0.1122 -0.0327 -0.1722
11180PW      WP38475   6.101   5.455   3.399 -0.0875 -0.5913 -0.2156
11180PW      WM38476   5.889   5.428   3.558 -0.1488  0.1494 -0.2071
11181PW       W38477   6.718   7.900   3.003 -0.0636  0.1632 -0.0484
11181PW      WP38478   6.833   7.840   3.057  0.2480  0.3542 -0.4756
11181PW      WM38479   6.717   7.911   2.864  0.1950  0.1614 -0.0520
11182PW       W38480   6.016   2.316  10.473 -0.0408  0.2739  0.0857
11182PW      WP38481   5.957   2.237  10.572  0.0917 -0.2839 -0.2612
11182PW      WM38482   6.015   2.287  10.336 -0.5644 -0.4396  0.2114
11183PW       W38483   1.088   0.066   4.356 -0.3310  0.0261 -0.1901
11183PW      WP38484   1.165   0.170   4.303  0.4013 -0.1966  0.3628
11183PW      WM38485   0.959   0.097   4.311 -0.2747  0.7942  0.1004
11184PW       W38486   4.205   8.518   5.536  0.1012  0.0718  0.1564
11184PW      WP38487   4.299   8.440   5.467  0.7232  0.6251  0.3195
11184PW      WM38488   4.098   8.598   5.494  0.2065  0.0809 -0.1074
11185PW       W38489   7.351  11.845   0.572 -0.3809 -0.0143  0.0347
11185PW      WP38490   7.329  11.971   0.629 -0.3151  0.0401 -0.0584
11185PW      WM38491   7.377  11.709   0.547  0.1076  0.0268  0.2571
11186PW       W38492   3.800   9.308  11.406  0.1770  0.1019 -0.4426
11186PW      WP38493   3.722   9.318  11.522 -0.4053 -0.4582 -0.7537
11186PW      WM38494   3.876   9.256  11.301  0.2658  0.2654 -0.4599
11187PW       W38495   3.233   7.121   4.783 -0.0833  0.2380 -0.0871
11187PW      WP38496   3.224   7.244   4.850  0.3505  0.3659 -0.2469
11187PW      WM38497   3.098   7.116   4.744 -0.1677  0.1289  0.2044
11188PW       W38498   9.969  11.250  13.355 -0.6539 -0.2772  0.0731
11188PW      WP38499  10.009  11.167  13.250  0.1332 -0.1491  0.2397
11188PW      WM38500   9.925  11.316  13.470 -0.3447  0.4407 -0.1948
11189PW       W38501   4.183   8.100   1.618 -0.0381  0.4367  0.2803
11189PW      WP38502   4.258   8.104   1.500 -0.5171  0.0104 -0.0639
11189PW      WM38503   4.109   8.073   1.502 -0.0073 -0.4683  0.4392
11190PW       W38504   6.174   9.488   4.618  0.2980 -0.1655  0.5877
11190PW      WP38505   6.161   9.622   4.580 -0.8563 -0.4178 -0.1659
11190PW      WM38506   6.163   9.359   4.564  0.1928  0.0411  0.0878
11191PW       W38507   0.743   8.410   4.803 -0.1211 -0.0487 -0.0279
11191PW      WP38508   0.623   8.341   4.781 -0.3304  0.1381  0.4604
11191PW      WM38509   0.728   8.515   4.711  0.0105 -0.4627 -0.5499
11192PW       W38510   1.717  11.257   3.112  0.7436  0.2727 -0.1222
11192PW      WP38511   1.751  11.122   3.128 -0.1267  0.0604  0.2176
11192PW      WM38512   1.714  11.158   3.013  0.0793  0.1678 -0.0190
11193PW       W38513   2.885   5.400   0.166  0.3382  0.3008  0.0815
11193PW      WP38514   2.841   5.461   0.284 -0.4024 -0.1013  0.0431
11193PW      WM38515   2.965   5.482   0.085  0.5032  0.3574  0.2948
11194PW       W38516   8.106   3.672   1.273  0.0800  0.4388 -0.6183
11194PW      WP38517   7.970   3.702   1.273 -0.0929 -0.2484 -0.6246
11194PW      WM38518   8.229   3.740   1.279  0.0018  0.5854  0.5486
11195PW       W38519   2.644  11.123  11.046 -0.0083  0.1811 -0.0671
11195PW      WP38520   2.633  11.040  10.933  0.1057 -0.2552  0.2280
11195PW      WM38521   2.734  11.226  11.073  0.0224  0.0071  0.5854
11196PW       W38522   8.962   3.571  12.531  0.2740 -0.0052 -0.3580
11196PW      WP38523   9.018   3.466  12.457  0.1360 -0.0425 -0.4097
11196PW      WM38524   8.849   3.654  12.538 -0.0985 -0.4905 -0.3946
11197PW       W38525   1.360   5.021   1.276  0.1995  0.6229  0.0637
11197PW      WP38526   1.374   5.086   1.153  0.3710  0.4110 -0.0325
11197PW      WM38527   1.272   5.071   1.372 -0.4865  0.0651 -0.2302
11198PW       W38528  11.566   9.841   2.296  0.0480 -0.0207  0.1021
11198PW      WP38529  11.552   9.712   2.350  0.2368 -0.1587 -0.1687
11198PW      WM38530  11.507   9.903   2.408 -0.3699  0.1390 -0.1946
11199PW       W38531   0.633  11.264   9.181  0.3853  0.2892 -0.0348
11199PW      WP38532   0.578  11.236   9.307 -0.1357 -0.0907 -0.3253
11199PW      WM38533   0.702  11.189   9.084  0.1474  0.0305 -0.0103
11200PW       W38534   3.870  11.133   9.166  0.0348 -0.2605 -0.1659
11200PW      WP38535   3.837  11.232   9.259 -0.0814 -0.2772 -0.1891
11200PW      WM38536   3.952  11.229   9.106 -0.5963  0.3048 -0.1806
11201PW       W38537   7.287   5.740   3.952  0.2353  0.3504 -0.0640
11201PW      WP38538   7.150   5.742   3.922  0.0817 -0.6942  0.3536
11201PW      WM38539   7.335   5.611   3.923 -0.3295  0.0141  0.3905
11202PW       W38540   2.822   6.264   4.678 -0.0569 -0.1887 -0.5573
11202PW      WP38541   2.770   6.318   4.560 -0.8538 -0.2891 -0.2838
11202PW      WM38542   2.799   6.150   4.755 -0.1390 -0.0936 -0.4381
11203PW       W38543   9.547   2.988   4.102  0.0635 -0.1229 -0.0707
11203PW      WP38544   9.533   3.008   3.964  0.0513  0.0143 -0.0504
11203PW      WM38545   9.637   2.952   4.203  0.0159 -0.1027 -0.0212
11204PW       W38546   4.250   5.073   0.401  0.0309  0.3225 -0.1142
11204PW      WP38547   4.362   5.155   0.416  0.3413 -0.0944 -0.0855
11204PW      WM38548   4.237   4.971   0.306  0.1921  0.2116 -0.0193
11205PW       W38549  10.367   2.265   9.919 -0.1032  0.4729  0.1956
11205PW      WP38550  10.500   2.222   9.925 -0.3531 -0.4375 -0.1097
11205PW      WM38551  10.251   2.247   9.994 -0.0467  0.3028  0.2456
11206PW       W38552   5.522   5.179   0.833  0.0662  0.0052  0.1093
11206PW      WP38553   5.477   5.051   0.798 -0.3657  0.1926 -0.0545
11206PW      WM38554   5.537   5.264   0.944 -0.0278  0.0386  0.0972
11207PW       W38555  11.230   0.293  10.004  0.2894  0.3060  0.6882
11207PW      WP38556  11.329   0.361  10.075  1.0336  0.3790 -0.3137
11207PW      WM38557  11.125   0.380  10.035 -0.1467  0.3660 -0.6579
11208PW       W38558   9.250   7.616   8.371 -0.0527 -0.2814 -0.0029
11208PW      WP38559   9.374   7.674   8.345 -0.0105 -0.2359  0.2760
11208PW      WM38560   9.309   7.660   8.490 -0.0426  0.1581 -0.1613
11209PW       W38561   9.123   0.299   0.843  0.3341 -0.3687  0.2188
11209PW      WP38562   9.019   0.232   0.777  0.3114 -0.2386  0.1207
11209PW      WM38563   9.018   0.386   0.873  0.1599 -0.4183 -0.2142
11210PW       W38564   5.810   9.383   3.229  0.0076  0.3429 -0.5092
11210PW      WP38565   5.804   9.480   3.128  0.1816  0.7851 -0.1193
11210PW      WM38566   5.933   9.331   3.271 -0.4885 -0.3092  0.2613
11211PW       W38567  11.495   0.437   2.738 -0.2170 -0.4532 -0.1204
11211PW      WP38568  11.633   0.414   2.740 -0.1389 -0.0762  0.6313
11211PW      WM38569  11.382   0.500   2.686  0.3500  0.4484 -0.3631
11212PW       W38570  10.102   9.329  11.191 -0.0958 -0.0054  0.1100
11212PW      WP38571  10.062   9.197  11.167 -0.3168 -0.0301  0.5595
11212PW      WM38572  10.123   9.338  11.052 -0.0602  0.1257  0.1235
11213PW       W38573   1.438   6.705   1.332 -0.0710  0.1337 -0.1107
11213PW      WP38574   1.357   6.816   1.358 -0.0170  0.1672 -0.0849
11213PW      WM38575   1.534   6.607   1.305 -0.2081 -0.0844  0.1650
11214PW       W38576  10.702   1.418  11.091  0.2147  0.1143  0.3046
11214PW      WP38577  10.814   1.356  11.147  0.3555 -0.0925 -0.1787
11214PW      WM38578  10.588   1.424  11.172 -0.0073  0.0124  0.0115
11215PW       W38579   2.433   0.117  11.439 -0.1228  0.0769  0.1303
11215PW      WP38580   2.412   0.202  11.329  0.0442 -0.1348 -0.0703
11215PW      WM38581   2.343   0.012  11.465 -0.0046 -0.1926 -0.4672
11216PW       W38582   6.557   8.588   9.624  0.2016 -0.0955  0.3707
11216PW      WP38583   6.596   8.637   9.749  0.3238  0.3221  0.1766
11216PW      WM38584   6.561   8.449   9.641  0.0041 -0.1403  0.0856
11217PW       W38585   1.062   7.043   1.420 -0.0868 -0.5664 -0.2014
11217PW      WP38586   1.049   7.182   1.435  0.0376 -0.6050  0.3791
11217PW      WM38587   1.181   6.997   1.362  0.2781  0.1422 -0.0755
11218PW       W38588   8.029   8.889  10.541  0.1717 -0.3481  0.0311
11218PW      WP38589   8.149   8.950  10.504 -0.0780  0.2214  0.1069
11218PW      WM38590   7.925   8.972  10.584  0.5184  0.2350 -0.1981
11219PW       W38591  12.105  11.200   9.054 -0.0416  0.0985  0.1202
11219PW      WP38592  12.140  11.305   8.969  0.1933 -0.0181  0.0683
11219PW      WM38593  12.051  11.190   8.926  0.2404  0.4282 -0.0314
11220PW       W38594   3.614   6.169  11.467  0.5490  0.3146 -0.1681
11220PW      WP38595   3.577   6.050  11.404 -0.1635  0.4583 -0.0691
11220PW      WM38596   3.737   6.196  11.528  0.2191 -0.1252  0.7975
11221PW       W38597   9.599   2.822   0.951 -0.0290 -0.4290 -0.3335
11221PW      WP38598   9.709   2.904   0.979 -0.1513 -0.3890  0.0565
11221PW      WM38599   9.593   2.715   0.860 -0.1688 -0.1084 -0.7122
11222PW       W38600   3.514   7.360  12.015  0.0496  0.0349  0.5744
11222PW      WP38601   3.433   7.474  12.029 -0.1805 -0.0458  0.0273
11222PW      WM38602   3.567   7.233  11.989 -0.1252  0.0584  0.0269
11223PW       W38603   5.703   1.415  12.826 -0.1072  0.4181  0.1515
11223PW      WP38604   5.816   1.373  12.898 -0.1624  0.0071  0.0130
11223PW      WM38605   5.569   1.455  12.826 -0.2439  0.0363 -0.5571
11224PW       W38606   3.450   9.676   2.668  0.0580  0.0319 -0.1828
11224PW      WP38607   3.554   9.691   2.576  0.1502 -0.1932 -0.1181
11224PW      WM38608   3.383   9.755   2.763 -0.4033 -0.4566 -0.0790
11225PW       W38609   2.511   5.312   9.018  0.0292  0.2154  0.3646
11225PW      WP38610   2.624   5.384   8.978  0.3018 -0.1441  0.4632
11225PW      WM38611   2.502   5.451   9.031 -0.0476  0.2789 -0.2122
11226PW       W38612   1.179   8.355   0.870 -0.2975  0.4141  0.7830
11226PW      WP38613   1.217   8.439   0.765 -0.0673 -0.3024  0.2469
11226PW      WM38614   1.047   8.312   0.888 -0.2977 -0.3330 -0.3980
11227PW       W38615  10.390   4.080  11.547  0.3595 -0.3846 -0.4441
11227PW      WP38616  10.270   4.083  11.477 -0.1334 -0.3721  0.3385
11227PW      WM38617  10.314   4.128  11.654  0.3850 -0.1389 -0.5356
11228PW       W38618   8.309   4.418   8.845  0.1238 -0.1339 -0.0951
11228PW      WP38619   8.192   4.461   8.780  0.2530 -0.0589 -0.2796
11228PW      WM38620   8.385   4.394   8.960  0.2415  0.5091 -0.0181
11229PW       W38621   4.449   5.772   4.634 -0.1438 -0.4232  0.5142
11229PW      WP38622   4.374   5.772   4.516  0.0152 -0.0341  0.4049
11229PW      WM38623   4.469   5.634   4.620  0.0209 -0.3791  0.2959
11230PW       W38624  11.486   0.958   0.958 -0.0727  0.3305  0.5486
11230PW      WP38625  11.563   1.067   1.002 -0.1851  0.5235  0.2774
11230PW      WM38626  11.374   0.885   1.000  0.2365 -0.3134  0.3271
11231PW       W38627   9.121  10.677  10.107 -0.1910  0.0839  0.7633
11231PW      WP38628   9.131  10.543  10.145 -0.2047 -0.2208 -0.1969
11231PW      WM38629   9.258  10.702  10.115 -0.1412  0.2363 -0.1204
11232PW       W38630  10.760   4.858   5.417  0.0641 -0.5961  0.2783
11232PW      WP38631  10.843   4.955   5.359 -0.1845 -0.1342  0.6587
11232PW      WM38632  10.684   4.768   5.341  0.1752 -0.2941 -0.2178
11233PW       W38633  11.705   0.784  13.307 -0.2145 -0.0096  0.2524
11233PW      WP38634  11.602   0.694  13.337 -0.0522 -0.4114 -0.3116
11233PW      WM38635  11.823   0.745  13.372  0.1143  0.2750 -0.1445
11234PW       W38636  12.121   5.468  10.305  0.4250 -0.0942 -0.6345
11234PW      WP38637  12.205   5.501  10.412  0.1722 -0.4376 -0.3178
11234PW      WM38638  12.065   5.569  10.226 -0.1825  0.2646  0.1786
11235PW       W38639   5.421  11.727   4.039  0.0534 -0.1112  0.3977
11235PW      WP38640   5.315  11.649   3.989  0.4062 -0.2477 -0.1860
11235PW      WM38641   5.499  11.639   4.114  0.5092  0.1894  0.2909
11236PW       W38642   8.276   9.571   0.039 -0.1969  0.1598 -0.1345
11236PW      WP38643   8.182   9.503   0.117 -0.1055  0.0329 -0.1335
11236PW      WM38644   8.324   9.489   0.142 -0.6962  0.6210  0.5094
11237PW       W38645   9.622   3.005   1.576 -0.4922  0.1440 -0.2419
11237PW      WP38646   9.485   3.026   1.561 -0.5031  0.0112 -0.3314
11237PW      WM38647   9.601   2.931   1.693 -0.4913  0.0334 -0.3112
11238PW       W38648   9.871   5.771   2.230 -0.1900 -0.0461  0.4207
11238PW      WP38649   9.921   5.893   2.181  0.0163 -0.2680  0.0533
11238PW      WM38650   9.896   5.799   2.095 -0.4271 -0.4237  0.2897
11239PW       W38651  11.595  10.429   1.573 -0.0711 -0.1421 -0.1242
11239PW      WP38652  11.468  10.488   1.578 -0.0593 -0.1159 -0.1278
11239PW      WM38653  11.630  10.457   1.705  0.2954 -0.2618 -0.1897
11240PW       W38654   9.035   3.781   2.794  0.0196 -0.1626  0.1459
11240PW      WP38655   8.997   3.646   2.796  0.2955 -0.2592 -0.3189
11240PW      WM38656   9.072   3.856   2.907 -0.2881  0.4030 -0.1072
11241PW       W38657   8.768   3.487   8.997  0.2477 -0.1285 -0.1964
11241PW      WP38658   8.738   3.497   8.861 -0.2573 -0.2995 -0.1060
11241PW      WM38659   8.871   3.478   9.092  0.0637  0.4266  0.0776
11242PW       W38660   6.084   6.689  10.510  0.2135  0.2611  0.2499
11242PW      WP38661   5.971   6.622  10.559  0.2876 -0.2760 -0.2548
11242PW      WM38662   6.162   6.721  10.398  0.2501  0.0634  0.2158
11243PW       W38663   1.704   7.327   2.105 -0.3013 -0.1519  0.2282
11243PW      WP38664   1.622   7.217   2.077  0.1884 -0.3671 -0.5142
11243PW      WM38665   1.729   7.441   2.182 -0.8843  0.1194  0.0418
11244PW       W38666   5.590   8.460   9.463 -0.2952  0.1298 -0.0171
11244PW      WP38667   5.532   8.519   9.577 -0.1771 -0.1558  0.1981
11244PW      WM38668   5.550   8.510   9.339 -0.1408  0.2019 -0.0398
11245PW       W38669  11.439   1.457   0.410  0.1998 -0.2071  0.2703
11245PW      WP38670  11.551   1.381   0.376  0.0849 -0.1484 -0.2898
11245PW      WM38671  11.311   1.505   0.441  0.1721 -0.1771  0.1126
11246PW       W38672  12.095  10.628  12.451 -0.0919  0.0016  0.1178
11246PW      WP38673  12.102  10.669  12.585  0.1642 -0.4630  0.2573
11246PW      WM38674  12.009  10.608  12.342 -0.0608  0.2076  0.0528
11247PW       W38675   2.544  11.457   2.017  0.1507 -0.8367  0.1932
11247PW      WP38676   2.653  11.414   1.941 -0.2799 -0.4787 -0.6998
11247PW      WM38677   2.413  11.415   2.042 -0.0266 -0.2595  0.3166
11248PW       W38678   9.363   7.545   2.538  0.0697 -0.4235  0.0903
11248PW      WP38679   9.290   7.427   2.552 -0.4426 -0.2363 -0.6838
11248PW      WM38680   9.471   7.494   2.465  0.0131  0.2036 -0.4734
11249PW       W38681   1.384   9.502   3.161 -0.1941 -0.0241  0.0897
11249PW      WP38682   1.475   9.553   3.067 -0.1472 -0.0623  0.1147
11249PW      WM38683   1.397   9.420   3.049 -0.1094  0.2274 -0.0897
11250PW       W38684   5.509   3.233   5.481  0.0450 -0.0665 -0.2187
11250PW      WP38685   5.597   3.137   5.428  0.8952  0.4584  0.1250
11250PW      WM38686   5.383   3.250   5.423 -0.1009  0.3742  0.1928
11251PW       W38687   6.672   4.109   9.466  0.1286 -0.1616 -0.1683
11251PW      WP38688   6.544   4.086   9.415 -0.0853  0.0394  0.2548
11251PW      WM38689   6.724   4.019   9.372  0.2436  0.2356 -0.5025
11252PW       W38690   7.874   1.753  10.182 -0.1185  0.3935  0.2284
11252PW      WP38691   7.903   1.680  10.066 -0.1665  0.7994 -0.0494
11252PW      WM38692   7.890   1.789  10.316 -0.2186 -0.1604  0.4025
11253PW       W38693   5.611   4.486   2.565  0.2707  0.2596 -0.2845
11253PW      WP38694   5.736   4.472   2.625  0.2767 -0.2517 -0.4003
11253PW      WM38695   5.627   4.348   2.551  0.1237  0.1691  0.2946
11254PW       W38696   6.604   1.032  10.972  0.1373  0.1063  0.2069
11254PW      WP38697   6.726   0.972  10.941  0.1035  0.4880 -0.8432
11254PW      WM38698   6.622   1.106  10.855  0.1596 -0.2535 -0.0253
11255PW       W38699  10.505   0.674  11.884  0.5595 -0.4984  0.0345
11255PW      WP38700  10.373   0.672  11.932  0.5843 -0.2503  0.1193
11255PW      WM38701  10.566   0.788  11.829 -0.0853 -0.0223  0.2366
11256PW       W38702   5.741   0.012  10.085 -0.7583  0.0777  0.0387
11256PW      WP38703   5.616   0.071  10.071 -0.6485  0.2379 -0.3241
11256PW      WM38704   5.703   0.104   9.987  0.1261  0.3762 -0.0755
11257PW       W38705   6.924   4.133  10.103 -0.0542  0.0849  0.0544
11257PW      WP38706   7.024   4.165  10.010  0.0280 -0.6506 -0.1388
11257PW      WM38707   7.041   4.067  10.142  0.0180 -0.2195 -0.5964
11258PW       W38708  11.283   0.133   3.045 -0.0134 -0.0409  0.3783
11258PW      WP38709  11.186   0.100   3.141 -0.3460 -0.1088  0.0280
11258PW      WM38710  11.190   0.202   2.966  0.3641  0.0146 -0.0345
11259PW       W38711   9.299   6.725   0.487 -0.1570  0.2246 -0.0718
11259PW      WP38712   9.159   6.725   0.482 -0.1590 -0.2009 -0.2896
11259PW      WM38713   9.298   6.679   0.354 -0.2820 -0.3273  0.1082
11260PW       W38714   2.122   3.019   9.539  0.1495  0.0568 -0.1398
11260PW      WP38715   2.015   3.064   9.617 -0.0078 -0.2008 -0.2015
11260PW      WM38716   2.182   2.894   9.556 -0.0746 -0.0948 -0.4112
11261PW       W38717   0.754   3.769   4.820  0.2529  0.4022  0.0680
11261PW      WP38718   0.691   3.882   4.874 -0.0356 -0.0315  0.7047
11261PW      WM38719   0.768   3.639   4.769  0.6279  0.1433  0.7590
11262PW       W38720   6.691   3.538   3.880 -0.4430 -0.2009  0.0283
11262PW      WP38721   6.592   3.632   3.851  0.0063  0.2203 -0.1980
11262PW      WM38722   6.657   3.547   3.745  0.0121 -0.0306 -0.0832
11263PW       W38723   8.596   8.441   2.918  0.3499  0.5037 -0.1069
11263PW      WP38724   8.458   8.436   2.937  0.3175  0.0347 -0.3841
11263PW      WM38725   8.636   8.483   3.045 -0.1958  0.1483  0.2031
11264PW       W38726   4.176   8.115  10.595 -0.0531 -0.0972 -0.4520
11264PW      WP38727   4.116   7.992  10.622 -0.1292 -0.0052 -0.1880
11264PW      WM38728   4.278   8.053  10.521 -0.0989 -0.2834 -0.3615
11265PW       W38729   5.523   5.085  10.853 -0.0726  0.6721 -0.0672
11265PW      WP38730   5.418   5.065  10.763  0.0738  0.0671 -0.1246
11265PW      WM38731   5.658   5.096  10.818  0.1371  0.4008  0.5761
11266PW       W38732  10.941   5.664   1.333 -0.2890  0.2730  0.0812
11266PW      WP38733  10.959   5.611   1.461  0.0479  0.0293 -0.0608
11266PW      WM38734  11.025   5.693   1.442  0.1788  0.1321 -0.2268
11267PW       W38735   4.855  11.203  10.429  0.0931  0.0037 -0.1372
11267PW      WP38736   4.844  11.341  10.451  0.0197 -0.0460  0.1516
11267PW      WM38737   4.851  11.121  10.316  0.4725 -0.0337 -0.1304
11268PW       W38738   1.073   2.183   2.018 -0.1804  0.1210 -0.4478
11268PW      WP38739   1.096   2.058   2.075 -0.0415  0.4018  0.1450
11268PW      WM38740   1.211   2.194   2.032 -0.1458 -0.2959 -0.3963
11269PW       W38741   0.350   8.201  12.736  0.1727  0.1432  0.0553
11269PW      WP38742   0.441   8.306  12.719  0.3081 -0.0189 -0.2721
11269PW      WM38743   0.388   8.083  12.801 -0.3460 -0.0093  0.1016
11270PW       W38744  11.703   9.344  12.193  0.1786  0.1430 -0.3084
11270PW      WP38745  11.577   9.401  12.170  0.1281  0.1598 -0.0084
11270PW      WM38746  11.758   9.242  12.272  0.1178 -0.0936 -0.5631
11271PW       W38747  10.385  12.115   4.772  0.2158 -0.1570  0.0441
11271PW      WP38748  10.286  12.038   4.710  0.0246 -0.1432  0.3254
11271PW      WM38749  10.382  12.154   4.906 -0.1118 -0.2822  0.0764
11272PW       W38750   3.636   1.236   5.313  0.4314 -0.0494 -0.5616
11272PW      WP38751   3.592   1.158   5.206 -0.1017 -0.1700 -0.2701
11272PW      WM38752   3.554   1.173   5.219 -0.1660  0.1857 -0.2223
11273PW       W38753  11.516   1.483   9.860 -0.0542  0.3858  0.4210
11273PW      WP38754  11.496   1.593   9.776  0.1904  0.0523 -0.1002
11273PW      WM38755  11.388   1.441   9.823  0.3508 -0.1585 -0.5564
11274PW       W38756   9.650   7.802  10.971  0.2645  0.0066  0.1171
11274PW      WP38757   9.585   7.923  11.003  0.0555 -0.2104  0.5673
11274PW      WM38758   9.538   7.740  10.915  0.4566 -0.3039  0.0693
11275PW       W38759   5.165   0.926  10.675 -0.0409  0.3273  0.2616
11275PW      WP38760   5.066   0.957  10.580  0.4522  0.2512 -0.3067
11275PW      WM38761   5.090   0.951  10.791 -0.3637  0.1916  0.0898
11276PW       W38762  10.182   5.042   9.532  0.0557  0.0418 -0.0253
11276PW      WP38763  10.092   5.111   9.615 -0.2296  0.1208 -0.3896
11276PW      WM38764  10.066   4.964   9.524  0.0243  0.0928 -0.0706
11277PW       W38765  11.913   1.083  11.399  0.6509 -0.0847 -0.1563
11277PW      WP38766  11.847   1.177  11.479 -0.1473 -0.0772 -0.7636
11277PW      WM38767  11.908   1.203  11.326 -0.1945  0.1291  0.1998
11278PW       W38768   8.313   6.162  13.335  0.2706 -0.3672  0.0165
11278PW      WP38769   8.424   6.212  13.267  0.1632  0.0338  0.1241
11278PW      WM38770   8.275   6.281  13.399  0.0224 -0.2848 -0.2705
11279PW       W38771   3.682   6.656  12.867  0.3282  0.3110  0.2100
11279PW      WP38772   3.552   6.604  12.871  0.1493  0.7222  0.0289
11279PW      WM38773   3.771   6.556  12.826  0.2809  0.2716  0.2028
11280PW       W38774   9.726   2.177   4.134 -0.0554 -0.1931 -0.1693
11280PW      WP38775   9.719   2.270   4.029  0.0064  0.0650  0.0519
11280PW      WM38776   9.595   2.142   4.171  0.0671 -0.3635  0.1171
11281PW       W38777  10.407   2.467   8.625  0.3811 -0.4656 -0.4844
11281PW      WP38778  10.428   2.541   8.509  0.3051  0.1025 -0.1548
11281PW      WM38779  10.511   2.473   8.718 -0.5570 -0.3912  0.6930
11282PW       W38780   8.083   3.341  10.623  0.1414 -0.0141 -0.1488
11282PW      WP38781   7.990   3.257  10.687  0.2352 -0.3687 -0.4632
11282PW      WM38782   8.194   3.399  10.561  0.3280  0.1173  0.2861
11283PW       W38783   6.666   2.789   0.134  0.0636 -0.4337  0.4657
11283PW      WP38784   6.667   2.687   0.038 -0.3294  0.1130 -0.1660
11283PW      WM38785   6.737   2.886   0.205  0.0331 -0.1441  0.1133
11284PW       W38786   7.172   0.425  10.752 -0.3621  0.0499  0.3585
11284PW      WP38787   7.275   0.406  10.659 -0.6439 -0.0693  0.0605
11284PW      WM38788   7.205   0.556  10.715 -0.1385 -0.0604  0.1550
11285PW       W38789   5.900   5.918   3.680 -0.1309 -0.1069  0.1391
11285PW      WP38790   5.826   5.832   3.598  0.0729 -0.4645  0.3192
11285PW      WM38791   6.034   5.879   3.686  0.0668  0.3852 -0.5102
11286PW       W38792   6.234   8.191   3.181 -0.4131  0.1638  0.0853
11286PW      WP38793   6.227   8.223   3.045  0.2676 -0.2876 -0.0848
11286PW      WM38794   6.341   8.216   3.094 -0.2605  0.1118  0.2537
11287PW       W38795   2.435   9.381   3.937  0.0042 -0.2188  0.0445
11287PW      WP38796   2.326   9.314   3.993 -0.5995  0.5172 -0.1651
11287PW      WM38797   2.513   9.340   3.828  0.2238  0.5349 -0.1145
11288PW       W38798   3.832   9.497   2.191 -0.0666  0.5311 -0.1128
11288PW      WP38799   3.862   9.615   2.122  0.2920  0.2966 -0.3743
11288PW      WM38800   3.900   9.487   2.313 -0.6520 -0.0812  0.1946
11289PW       W38801   2.586   8.835  11.427  0.0691 -0.2455  0.4710
11289PW      WP38802   2.726   8.829  11.421  0.0662 -0.2316 -0.5050
11289PW      WM38803   2.541   8.935  11.514  0.0142  0.2000 -0.0424
11290PW       W38804  11.332  11.734  10.016  0.1573 -0.0338 -0.2846
11290PW      WP38805  11.384  11.801  10.128  0.4775 -0.2381 -0.3052
11290PW      WM38806  11.461  11.679  10.003 -0.0360 -0.5317 -0.2132
11291PW       W38807   6.368   2.467   9.871 -0.3080  0.5800  0.0121
11291PW      WP38808   6.263   2.384   9.829 -0.0829  0.3451 -0.0976
11291PW      WM38809   6.263   2.425   9.954 -0.0667 -0.0757  0.0158
11292PW       W38810   3.884   6.891   9.635  0.1439  0.0196 -0.0223
11292PW      WP38811   3.961   6.855   9.524  0.2685  0.5163 -0.1125
11292PW      WM38812   4.015   6.903   9.683  0.0707 -0.1541  0.2295
11293PW       W38813   0.350  11.006  11.723  0.1287  0.0271  0.0567
11293PW      WP38814   0.469  10.936  11.700  0.3670  0.4738 -0.1155
11293PW      WM38815   0.318  11.000  11.859 -0.2416 -0.2106 -0.0324
11294PW       W38816   8.035   7.091  11.918 -0.1539 -0.0950  0.1836
11294PW      WP38817   8.129   7.132  12.014  0.0208  0.2971 -0.1411
11294PW      WM38818   7.904   7.045  11.936 -0.0595 -0.4748 -0.0564
11295PW       W38819  11.655   5.124  11.390 -0.1705  0.0309  0.0284
11295PW      WP38820  11.607   5.132  11.259  0.1420  0.3544 -0.0735
11295PW      WM38821  11.595   5.014  11.328  0.2596 -0.4150  0.3586
11296PW       W38822   0.681   0.472  10.849 -0.0392  0.5782 -0.2345
11296PW      WP38823   0.683   0.500  10.986 -0.1604  0.3804 -0.1907
11296PW      WM38824   0.783   0.473  10.753  0.1191 -0.0892 -0.0956
11297PW       W38825   4.751   2.947  12.476 -0.5016  0.1037  0.1651
11297PW      WP38826   4.793   3.079  12.493  0.2589 -0.0839 -0.0895
11297PW      WM38827   4.833   2.942  12.590  0.2869 -0.2839 -0.3747
11298PW       W38828   3.701   6.273   4.741 -0.0156  0.0833 -0.1592
11298PW      WP38829   3.789   6.351   4.664  0.2198 -0.1815 -0.1652
11298PW      WM38830   3.828   6.221   4.711 -0.1032 -0.0835 -0.2477
11299PW       W38831   0.628   0.360  11.739 -0.1863 -0.0495 -0.2005
11299PW      WP38832   0.607   0.256  11.648 -0.1081  0.1022 -0.3955
11299PW      WM38833   0.740   0.427  11.688 -0.1365  0.1350  0.1399
11300PW       W38834   6.611  10.658   0.234 -0.0902 -0.3169 -0.1578
11300PW      WP38835   6.510  10.739   0.181  0.4277  0.2328 -0.3603
11300PW      WM38836   6.690  10.640   0.120 -0.1486  0.1391 -0.2777
11301PW       W38837   5.963  10.015   9.481 -0.2055  0.2261 -0.0547
11301PW      WP38838   6.037   9.915   9.416  0.0949  0.1300  0.4108
11301PW      WM38839   5.866  10.111   9.450 -0.0344  0.4644  0.1278
11302PW       W38840   5.034   2.475   9.570  0.1359 -0.4396 -0.1551
11302PW      WP38841   5.025   2.369   9.480  0.2202 -0.3076 -0.3228
11302PW      WM38842   5.118   2.560   9.497  0.4949 -0.3674  0.3147
11303PW       W38843   0.191  11.401   2.498  0.3058  0.4472 -0.0294
11303PW      WP38844   0.100  11.417   2.603 -0.0152  0.2451 -0.2676
11303PW      WM38845   0.190  11.466   2.374  0.2471 -0.0218 -0.2862
11304PW       W38846   1.258   2.731  12.417  0.5066 -0.3861 -0.0018
11304PW      WP38847   1.140   2.655  12.415  0.1428  0.1539 -0.1207
11304PW      WM38848   1.240   2.731  12.556  0.0440  0.3791 -0.0329
11305PW       W38849   5.291   3.394   8.868  0.0222 -0.2545  0.0648
11305PW      WP38850   5.281   3.378   8.729  0.2871  0.4462 -0.0577
11305PW      WM38851   5.191   3.489   8.844 -0.0614 -0.3651 -0.0290
11306PW       W38852   8.596   7.218  10.739  0.0459  0.1498  0.2806
11306PW      WP38853   8.735   7.229  10.750  0.0810 -0.1196  0.1354
11306PW      WM38854   8.533   7.138  10.835 -0.3909  0.4945  0.3000
11307PW       W38855   8.970   4.609   5.697 -0.0428 -0.0170  0.0660
11307PW      WP38856   9.082   4.605   5.612  0.0013  0.3991  0.0909
11307PW      WM38857   8.838   4.571   5.672 -0.1089  0.5245 -0.5517
11308PW       W38858   7.202   5.930  12.216 -0.0831 -0.0494  0.0123
11308PW      WP38859   7.083   5.884  12.275 -0.0636  0.2254  0.2782
11308PW      WM38860   7.301   6.027  12.228  0.1868 -0.2391 -0.5056
11309PW       W38861   5.924   9.200  10.379 -0.1800  0.0531 -0.1657
11309PW      WP38862   5.854   9.207  10.258 -0.2697  0.4072 -0.0965
11309PW      WM38863   6.031   9.200  10.288 -0.0149 -0.1000  0.0228
11310PW       W38864   9.280   6.202   9.013  0.0579  0.1821  0.5607
11310PW      WP38865   9.217   6.083   9.054  0.0841 -0.1079 -0.1638
11310PW      WM38866   9.179   6.289   8.972  0.1016 -0.0797 -0.1883
11311PW       W38867   3.971   5.173   0.831 -0.2664 -0.0155 -0.3466
11311PW      WP38868   4.021   5.129   0.707  0.5270 -0.1166 -0.0216
11311PW      WM38869   4.050   5.281   0.871 -0.3718 -0.0738  0.0332
11312PW       W38870   8.568   0.683   3.746  0.4780  0.4899  0.3189
11312PW      WP38871   8.553   0.685   3.885 -0.4749  0.3875  0.2472
11312PW      WM38872   8.470   0.783   3.757 -0.1441 -0.0741  0.1839
11313PW       W38873   5.794   5.240   3.116  0.3347 -0.0020 -0.0820
11313PW      WP38874   5.783   5.135   3.025 -0.1912 -0.2081  0.1972
11313PW      WM38875   5.673   5.188   3.164  0.3357  0.0921  0.0253
11314PW       W38876  11.862   3.418   0.870  0.0776  0.0879  0.1560
11314PW      WP38877  11.750   3.346   0.913 -0.4882  0.8328  0.0162
11314PW      WM38878  11.770   3.410   0.766 -0.3313 -0.1953  0.5184
11315PW       W38879   2.552   9.968   4.834 -0.1414 -0.5970  0.4604
11315PW      WP38880   2.683   9.927   4.808  0.0341  0.2071 -0.0878
11315PW      WM38881   2.625  10.002   4.949  0.0529 -0.2258  0.2354
11316PW       W38882   0.709   3.206   0.711 -0.1255  0.1981 -0.2737
11316PW      WP38883   0.728   3.307   0.805  0.3858  0.3426 -0.5155
11316PW      WM38884   0.569   3.205   0.712 -0.1273  0.3268  0.0591
11317PW       W38885   7.301   8.631  12.451  0.4938 -0.0949 -0.3483
11317PW      WP38886   7.352   8.747  12.392  0.5892 -0.0572 -0.1944
11317PW      WM38887   7.283   8.603  12.315  0.5686  0.3506 -0.4569
11318PW       W38888   3.314  11.506  11.637  0.2019 -0.1291  0.1729
11318PW      WP38889   3.205  11.513  11.550  0.3132  0.0036  0.0414
11318PW      WM38890   3.261  11.540  11.512 -0.4100  0.0260  0.4567
11319PW       W38891   1.935   3.651   3.074 -0.1035  0.0813 -0.0501
11319PW      WP38892   1.825   3.630   3.159 -0.0975  0.4792  0.0694
11319PW      WM38893   2.045   3.737   3.083  0.5242 -0.5765 -0.7131
11320PW       W38894   9.081   5.959  12.714 -0.1578 -0.0440  0.1265
11320PW      WP38895   8.948   5.989  12.685 -0.0957  0.1262  0.0081
11320PW      WM38896   9.094   6.041  12.826 -0.4222 -0.1053  0.2041
11321PW       W38897  10.069   3.472  12.150  0.2021  0.0297  0.4366
11321PW      WP38898   9.966   3.566  12.147 -0.1296 -0.3120  0.6768
11321PW      WM38899  10.188   3.404  12.119 -0.0301 -0.2036  0.0115
11322PW       W38900   0.872  10.827   9.170 -0.2497  0.1055  0.0248
11322PW      WP38901   0.838  10.961   9.151  0.6880  0.3379 -0.2605
11322PW      WM38902   0.778  10.784   9.265 -0.1652  0.6825  0.3966
11323PW       W38903   1.282   0.337   8.962 -0.0805 -0.0560 -0.3940
11323PW      WP38904   1.216   0.459   8.985 -0.0742 -0.0950 -0.1589
11323PW      WM38905   1.230   0.366   8.835 -0.3088  0.1139 -0.2673
11324PW       W38906   4.214  11.360   5.229  0.1577 -0.1040  0.2704
11324PW      WP38907   4.313  11.446   5.181  0.2524 -0.4705 -0.2326
11324PW      WM38908   4.235  11.234   5.172 -0.1051  0.0327 -0.1502
11325PW       W38909   5.543   0.805   2.209 -0.0712 -0.1450  0.1892
11325PW      WP38910   5.474   0.898   2.131  0.0458  0.0176  0.2739
11325PW      WM38911   5.565   0.668   2.193  0.3865 -0.0300 -0.3306
11326PW       W38912   7.532   7.873   9.298 -0.1982 -0.0656  0.5850
11326PW      WP38913   7.589   7.746   9.278 -0.1788 -0.0200  0.3273
11326PW      WM38914   7.445   7.830   9.399 -0.5785  0.4858  0.5162
11327PW       W38915   8.610   7.493  11.217  0.0589 -0.3745  0.1913
11327PW      WP38916   8.676   7.597  11.151  0.0112 -0.2949  0.2670
11327PW      WM38917   8.520   7.512  11.323  0.1874  0.0531  0.2354
11328PW       W38918   6.293   6.271  10.285  0.0454 -0.3220  0.6965
11328PW      WP38919   6.417   6.314  10.335  0.2664  0.0138 -0.0611
11328PW      WM38920   6.209   6.276  10.397 -0.3613  0.1902  0.3914
11329PW       W38921   3.421   4.423  12.243  0.3533 -0.0694  0.0602
11329PW      WP38922   3.308   4.428  12.326  0.1892 -0.8251 -0.0784
11329PW      WM38923   3.336   4.324  12.192 -0.1587  0.3963 -0.0391
11330PW       W38924  10.687   5.551   3.105 -0.0213 -0.5413  0.3889
11330PW      WP38925  10.558   5.504   3.075 -0.1924  0.2930 -0.4346
11330PW      WM38926  10.774   5.506   3.005 -0.2114  0.4979 -0.3355
11331PW       W38927   6.040   8.184   9.481 -0.6971  0.0350  0.0665
11331PW      WP38928   6.003   8.288   9.395 -0.0524  0.3020  0.0800
11331PW      WM38929   5.945   8.088   9.517 -0.4586 -0.2967 -0.1488
11332PW       W38930   9.801   4.792  11.523  0.2573 -0.0953 -0.2642
11332PW      WP38931   9.850   4.662  11.540  0.2174 -0.1185 -0.3212
11332PW      WM38932   9.712   4.833  11.623  0.1815 -0.4596 -0.1771
11333PW       W38933   2.963   8.304   3.211 -0.0726 -0.3841  0.1633
11333PW      WP38934   2.935   8.216   3.106 -0.2903 -0.1448  0.0139
11333PW      WM38935   2.995   8.195   3.293  0.2582 -0.4571 -0.0539
11334PW       W38936   4.057   6.772  12.502  0.3654 -0.0061 -0.2346
11334PW      WP38937   4.091   6.782  12.366 -0.3328  0.2862 -0.4099
11334PW      WM38938   4.110   6.837  12.614  0.4952 -0.1055 -0.2359
11335PW       W38939   0.779  11.169  11.433 -0.1034 -0.1406  0.3925
11335PW      WP38940   0.653  11.225  11.411  0.0994  0.4078  0.5302
11335PW      WM38941   0.785  11.030  11.421 -0.1194 -0.1416  0.3947
11336PW       W38942   5.850   5.562   4.046  0.0943  0.1990  0.0061
11336PW      WP38943   5.748   5.574   4.141  0.2936  0.8036  0.1643
11336PW      WM38944   5.800   5.447   4.108 -0.1188  0.0859 -0.3593
11337PW       W38945   1.766   3.297   9.785  0.1355 -0.6139  0.0163
11337PW      WP38946   1.662   3.208   9.753 -0.4618  0.1425 -0.2945
11337PW      WM38947   1.894   3.248   9.755  0.4750  0.4554 -0.5474
11338PW       W38948   6.264   1.035   0.263  0.4212  0.0776  0.0061
11338PW      WP38949   6.318   1.079   0.384 -0.3499 -0.3404  0.5447
11338PW      WM38950   6.371   0.960   0.314  0.0190 -0.8674 -0.4074
11339PW       W38951  11.236   1.487   3.840  0.0940  0.0119  0.4522
11339PW      WP38952  11.362   1.540   3.808  0.2602 -0.5320  0.1517
11339PW      WM38953  11.331   1.404   3.779 -0.0694  0.1392 -0.0004
11340PW       W38954   2.166   1.637   4.153  0.0590 -0.1500 -0.2047
11340PW      WP38955   2.034   1.644   4.106 -0.1440  0.4483  0.3703
11340PW      WM38956   2.038   1.622   4.208  0.1121 -0.4411 -0.1550
11341PW       W38957   1.031   7.935   1.115 -0.2152 -0.2144 -0.3173
11341PW      WP38958   0.902   7.966   1.069 -0.5251  0.1709  0.6749
11341PW      WM38959   1.069   7.898   0.985  0.2457 -0.4238 -0.1337
11342PW       W38960   7.048  11.351   2.758  0.1439  0.1875 -0.0377
11342PW      WP38961   7.165  11.381   2.827  0.1009  0.2205  0.0218
11342PW      WM38962   7.106  11.229   2.795 -0.1457  0.0230 -0.1035
11343PW       W38963   1.636  11.553   2.220  0.1313  0.1194 -0.3115
11343PW      WP38964   1.553  11.558   2.108  0.1071 -0.1889 -0.3098
11343PW      WM38965   1.506  11.605   2.234  0.3363  0.5563  0.1308
11344PW       W38966  11.092   8.702   3.513 -0.4891  0.2008 -0.1728
11344PW      WP38967  11.053   8.796   3.416  0.2072  0.4469 -0.2405
11344PW      WM38968  11.224   8.673   3.477 -0.4124 -0.2382  0.3848
11345PW       W38969   5.125   7.422  12.218  0.1152  0.1776  0.1010
11345PW      WP38970   5.126   7.350  12.098  0.1949 -0.0751  0.2491
11345PW      WM38971   5.033   7.518  12.175  0.0391 -0.0328 -0.2242
11346PW       W38972  11.728   8.373   4.260 -0.1180  0.0702  0.2661
11346PW      WP38973  11.837   8.447   4.306 -0.0987  0.3457 -0.1863
11346PW      WM38974  11.699   8.237   4.244  0.1065  0.0585 -0.0980
11347PW       W38975   7.146   9.096   9.129  0.0090 -0.2879 -0.3691
11347PW      WP38976   7.151   9.197   9.032 -0.0201 -0.2373 -0.3175
11347PW      WM38977   7.114   9.076   9.264  0.2997 -0.0388 -0.2576
11348PW       W38978   1.178  11.538   8.900 -0.3641 -0.1047  0.2604
11348PW      WP38979   1.187  11.616   8.785  0.0190 -0.3271  0.1318
11348PW      WM38980   1.068  11.625   8.905 -0.2642  0.0935 -0.4786
11349PW       W38981   9.501   3.963   9.430  0.2904  0.5578 -0.2261
11349PW      WP38982   9.382   3.893   9.449  0.5328  0.2524  0.2557
11349PW      WM38983   9.632   3.917   9.446  0.1190  0.3302  0.8497
11350PW       W38984  10.533  11.884   2.564 -0.1665  0.0003 -0.4133
11350PW      WP38985  10.632  11.957   2.629 -0.2036 -0.0492 -0.2991
11350PW      WM38986  10.507  11.934   2.692  0.4389  0.0501 -0.2997
11351PW       W38987   2.341   3.027   0.505  0.1059 -0.0004 -0.5074
11351PW      WP38988   2.252   2.986   0.405 -0.4849 -0.0315 -0.0004
11351PW      WM38989   2.444   3.100   0.446 -0.1728  0.8207 -0.0624
11352PW       W38990   9.538   8.306   3.929  0.0180 -0.2151  0.2567
11352PW      WP38991   9.656   8.238   3.964 -0.0784 -0.5617 -0.0661
11352PW      WM38992   9.669   8.346   3.961  0.1183 -0.1012 -0.2519
11353PW       W38993   6.450   2.576   4.049 -0.0493 -0.2308 -0.0648
11353PW      WP38994   6.371   2.682   4.002 -0.0686 -0.1288  0.1902
11353PW      WM38995   6.350   2.479   4.034 -0.3539  0.0156  0.2841
11354PW       W38996   5.538   6.613  11.151  0.3148 -0.1868  0.0997
11354PW      WP38997   5.544   6.481  11.106  0.2106 -0.2803  0.3522
11354PW      WM38998   5.417   6.637  11.216  0.5869  0.8785  0.3092
11355PW       W38999   8.652   5.289   1.970 -0.1881 -0.1317 -0.2161
11355PW      WP39000   8.564   5.283   1.862 -0.1888  0.3392 -0.2518
11355PW      WM39001   8.688   5.184   1.885 -0.1375 -0.0589 -0.2850
11356PW       W39002   3.044   3.198  10.302 -0.1154  0.3074  0.3213
11356PW      WP39003   3.132   3.188  10.194 -0.0664  1.0760  0.2584
11356PW      WM39004   3.067   3.093  10.392 -0.2609  0.1445  0.1727
11357PW       W39005   4.501   3.262   4.974  0.1436 -0.3806  0.3660
11357PW      WP39006   4.607   3.257   5.065  0.1503 -0.4108  0.3567
11357PW      WM39007   4.570   3.163   4.903  0.4063  0.1896 -0.2197
11358PW       W39008   1.053   8.724   3.826 -0.2669  0.1498 -0.0469
11358PW      WP39009   1.161   8.678   3.749  0.0590  0.1345  0.4012
11358PW      WM39010   1.066   8.864   3.831  0.0518  0.1135  0.4347
11359PW       W39011  10.554   7.868   2.909  0.1552 -0.2607  0.0032
11359PW      WP39012  10.415   7.855   2.918  0.1471  0.0668  0.5114
11359PW      WM39013  10.507   7.996   2.940  0.5491  0.0135 -0.4462
11360PW       W39014   5.514   1.720   8.022  0.3020  0.3109  0.0915
11360PW      WP39015   5.619   1.713   8.114  0.2352  0.0610  0.1548
11360PW      WM39016   5.494   1.591   8.074  0.1685  0.3969  0.2584
11361PW       W39017  11.147   1.891   1.686 -0.2992 -0.0458 -0.1568
11361PW      WP39018  11.236   1.805   1.619 -0.0600 -0.2733  0.4223
11361PW      WM39019  11.065   1.936   1.790 -0.4217 -0.7333  0.0691
11362PW       W39020   7.973   3.847   5.459  0.4486 -0.0644 -0.0818
11362PW      WP39021   7.846   3.885   5.504  0.6211  0.3988  0.0452
11362PW      WM39022   7.967   3.931   5.347 -0.2696 -0.0294 -0.0369
11363PW       W39023  12.074   0.851   0.574  0.2864 -0.1483  0.2273
11363PW      WP39024  11.939   0.831   0.541  0.3747 -0.0774 -0.2067
11363PW      WM39025  12.155   0.740   0.600  0.0349 -0.3131  0.3206
11364PW       W39026   4.362   3.779   4.231 -0.5860  0.4400  0.2955
11364PW      WP39027   4.324   3.655   4.283 -0.0311  0.2777  0.3470
11364PW      WM39028   4.434   3.894   4.193  0.0260 -0.0923 -0.2855
11365PW       W39029   3.146   9.369   4.363 -0.5147  0.1817  0.0750
11365PW      WP39030   3.006   9.380   4.352 -0.4905  0.1571 -0.3254
11365PW      WM39031   3.124   9.470   4.457 -0.1941  0.4774 -0.1550
11366PW       W39032   8.491   0.222   3.423  0.1687  0.3632  0.0906
11366PW      WP39033   8.518   0.192   3.289 -0.2528  0.0478  0.0659
11366PW      WM39034   8.537   0.184   3.550 -0.2178 -0.0591  0.1202
11367PW       W39035   2.699   0.731   3.823 -0.1320  0.1098  0.3333
11367PW      WP39036   2.804   0.817   3.789 -0.2871  0.1497 -0.0805
11367PW      WM39037   2.786   0.633   3.773 -0.4000 -0.0735  0.2099
11368PW       W39038   8.294   6.638   2.730 -0.4630 -0.0530  0.0184
11368PW      WP39039   8.314   6.775   2.710  0.1434 -0.1979 -0.5687
11368PW      WM39040   8.191   6.680   2.644 -0.1899  0.1557 -0.2178
11369PW       W39041   1.337   4.059   0.338 -0.3288  0.2043  0.1199
11369PW      WP39042   1.244   4.092   0.437 -0.1523 -0.2004  0.4297
11369PW      WM39043   1.349   3.984   0.220 -0.0834  0.2984  0.0821
11370PW       W39044  11.813   0.708  10.396  0.2846 -0.2132 -0.0905
11370PW      WP39045  11.813   0.568  10.391 -0.1072 -0.2203 -0.0498
11370PW      WM39046  11.912   0.732  10.301 -0.0067  0.4767 -0.2486
11371PW       W39047   8.308   5.120   0.148 -0.0413  0.1304  0.2465
11371PW      WP39048   8.405   5.164   0.239 -0.2648  0.2567  0.4257
11371PW      WM39049   8.283   4.982   0.136 -0.3874  0.1894  0.2423
11372PW       W39050  10.483   1.591  13.159 -0.0008 -0.5973  0.0724
11372PW      WP39051  10.420   1.527  13.052  0.2343 -0.7142 -0.0003
11372PW      WM39052  10.510   1.614  13.294  0.1581  0.2490 -0.0754
11373PW       W39053   0.996   2.779  13.203 -0.1232  0.1493 -0.0353
11373PW      WP39054   1.053   2.748  13.327 -0.2116  0.0328 -0.0228
11373PW      WM39055   0.906   2.796  13.308 -0.1119 -0.2127  0.0397
11374PW       W39056   8.257   6.177  12.361  0.0718  0.2485  0.1247
11374PW      WP39057   8.336   6.266  12.287 -0.9082  0.7243 -0.4552
11374PW      WM39058   8.318   6.121  12.474  0.0578  0.0070  0.0153
11375PW       W39059  10.182   9.549   3.195  0.0532  0.1890 -0.0235
11375PW      WP39060  10.113   9.438   3.145  0.5868 -0.1725 -0.0064
11375PW      WM39061  10.103   9.588   3.303  0.1479 -0.1532  0.1790
11376PW       W39062   0.537   6.245   3.569 -0.2154 -0.0037  0.0847
11376PW      WP39063   0.677   6.240   3.565 -0.2044  0.3072 -0.2103
11376PW      WM39064   0.462   6.235   3.686 -0.2832 -0.5268  0.0069
11377PW       W39065   3.332  11.344   2.748  0.0227  0.2194  0.1440
11377PW      WP39066   3.425  11.416   2.824 -0.2161  0.2631  0.4053
11377PW      WM39067   3.198  11.328   2.785 -0.0059 -0.3100 -0.1339
11378PW       W39068   9.979   1.762   1.049 -0.0857  0.2065 -0.1908
11378PW      WP39069  10.039   1.692   0.943 -0.1171 -0.0929 -0.0152
11378PW      WM39070  10.086   1.832   1.105  0.0621 -0.3772  0.3104
11379PW       W39071   6.019   3.944  11.092 -0.4232  0.1685  0.1026
11379PW      WP39072   5.949   3.954  11.213  0.0492 -0.1474  0.4169
11379PW      WM39073   6.141   3.977  11.151 -0.3270 -0.4414  0.2797
11380PW       W39074   1.069  11.521   9.433  0.2275 -0.0614 -0.3948
11380PW      WP39075   1.075  11.395   9.494  0.2308  0.0736 -0.1077
11380PW      WM39076   1.049  11.411   9.348  0.0323 -0.0065 -0.4233
11381PW       W39077   4.941   7.677   4.876  0.2737 -0.2829 -0.1702
11381PW      WP39078   5.054   7.653   4.954  0.0999  0.2595  0.2815
11381PW      WM39079   4.804   7.692   4.898  0.3180 -0.1629  0.0436
11382PW       W39080   5.966   2.758  10.893  0.1881 -0.3241 -0.2313
11382PW      WP39081   5.841   2.822  10.896  0.2944 -0.1182  0.2426
11382PW      WM39082   5.932   2.876  10.825  0.0431 -0.3422 -0.1933
11383PW       W39083   9.403   7.209   9.831  0.1412  0.0908  0.1734
11383PW      WP39084   9.275   7.183   9.882  0.0960  0.1583  0.0940
11383PW      WM39085   9.374   7.277   9.713  0.0116 -0.3431 -0.0565
11384PW       W39086   3.824   4.441  11.746 -0.0128  0.0743 -0.2668
11384PW      WP39087   3.762   4.325  11.697 -0.3245  0.0460  0.1659
11384PW      WM39088   3.954   4.480  11.709  0.0880 -0.2689 -0.2937
11385PW       W39089   6.753   9.005   1.479  0.2055 -0.1719  0.4198
11385PW      WP39090   6.811   9.132   1.494 -0.1824  0.0907 -0.1129
11385PW      WM39091   6.726   8.945   1.355  0.2641  0.1076  0.2665
11386PW       W39092   4.435   4.755   8.972 -0.5892  0.1584  0.0087
11386PW      WP39093   4.484   4.721   8.845 -0.0022 -0.2869  0.3289
11386PW      WM39094   4.411   4.623   9.010  0.7166 -0.0209  0.4838
11387PW       W39095   8.218  11.925   4.538  0.0153  0.1648 -0.0131
11387PW      WP39096   8.177  11.861   4.656  0.3789 -0.3290 -0.1383
11387PW      WM39097   8.305  12.014   4.602 -0.1325  0.1340  0.2390
11388PW       W39098  10.024   8.577  11.271 -0.2780  0.1065 -0.1860
11388PW      WP39099  10.023   8.663  11.161  0.1573 -0.2363 -0.4771
11388PW      WM39100  10.109   8.656  11.349 -0.0409  0.0681 -0.4004
11389PW       W39101   5.622   3.366   3.561 -0.0791  0.0727 -0.4976
11389PW      WP39102   5.576   3.498   3.568  0.2732  0.1783  0.3260
11389PW      WM39103   5.637   3.311   3.689 -0.2443 -0.2516 -0.6102
11390PW       W39104  10.364   4.226   1.379  0.0407  0.3207  0.0695
11390PW      WP39105  10.241   4.195   1.437  0.1327  0.1273  0.1656
11390PW      WM39106  10.500   4.254   1.366  0.1850 -0.3798 -0.1474
11391PW       W39107   4.789  10.995   4.224 -0.5123 -0.1664  0.4800
11391PW      WP39108   4.735  11.112   4.169  0.0810 -0.0046  0.2075
11391PW      WM39109   4.765  10.858   4.205 -0.0934 -0.1662 -0.1737
11392PW       W39110   0.129   0.439   4.444  0.0337 -0.0515 -0.2212
11392PW      WP39111   0.062   0.328   4.496 -0.0748  0.1658  0.1253
11392PW      WM39112   0.062   0.370   4.343  0.2149 -0.0403 -0.3520
11393PW       W39113   2.905   9.372   5.436 -0.0923  0.1265  0.1352
11393PW      WP39114   2.800   9.455   5.478 -0.3678 -0.2594  0.2347
11393PW      WM39115   2.898   9.319   5.307 -0.0253  0.4875 -0.0244
11394PW       W39116   1.487  10.258  12.532 -0.1215 -0.5001  0.0953
11394PW      WP39117   1.355  10.218  12.558 -0.2906  0.1302  0.2945
11394PW      WM39118   1.596  10.286  12.615  0.1874  0.1593 -0.4756
11395PW       W39119   3.336   1.096   3.069  0.1356 -0.2989  0.0662
11395PW      WP39120   3.441   1.006   3.046  0.4357 -0.0062  0.2419
11395PW      WM39121   3.212   1.035   3.094  0.3064 -0.6868  0.0002
11396PW       W39122   8.945   9.003   8.761  0.4474  0.1077  0.1013
11396PW      WP39123   8.920   8.898   8.671 -0.3328  0.2961  0.0633
11396PW      WM39124   8.873   9.034   8.877  0.4096  0.4449 -0.0074
11397PW       W39125   4.110   4.677   9.409  0.3455 -0.1350 -0.6209
11397PW      WP39126   4.157   4.569   9.483  0.3430  0.2970  0.0560
11397PW      WM39127   4.240   4.710   9.369  0.8539 -0.4859  0.5487
11398PW       W39128   2.775   4.562   2.543 -0.6484  0.0868  0.0363
11398PW      WP39129   2.644   4.550   2.497 -0.5858 -0.0896 -0.1065
11398PW      WM39130   2.840   4.631   2.440 -0.0815 -0.0320  0.2942
11399PW       W39131   9.663   4.956   8.676 -0.4837 -0.2428 -0.2041
11399PW      WP39132   9.644   4.935   8.813  0.1243  0.1619 -0.0389
11399PW      WM39133   9.681   4.895   8.551  0.5257 -0.1199 -0.1565
11400PW       W39134   0.959   9.607   2.851 -0.3560  0.2407  0.0349
11400PW      WP39135   1.024   9.616   2.975 -0.3600 -0.6205  0.1281
11400PW      WM39136   0.867   9.543   2.935  0.1765  0.0239  0.4886
11401PW       W39137   2.569   5.052   2.640  0.4025 -0.2169  0.1177
11401PW      WP39138   2.670   4.994   2.718  0.4045  0.2738  0.5023
11401PW      WM39139   2.642   5.097   2.530  0.2190 -0.2232 -0.0090
11402PW       W39140   7.691  12.138   3.741  0.2814  0.1374 -0.2712
11402PW      WP39141   7.573  12.212   3.730  0.2797  0.1518 -0.1600
11402PW      WM39142   7.698  12.024   3.660  0.1624  0.1647 -0.3214
11403PW       W39143   0.510   2.588   9.526 -0.1036 -0.2588 -0.1458
11403PW      WP39144   0.409   2.677   9.488 -0.1031 -0.0369  0.3297
11403PW      WM39145   0.455   2.522   9.636 -0.0863  0.0680  0.0680
11404PW       W39146  11.981   9.984   9.634 -0.2907 -0.2581  0.2009
11404PW      WP39147  12.061   9.970   9.748 -0.2015  0.2106  0.2083
11404PW      WM39148  11.855   9.952   9.580 -0.0746 -0.3020 -0.3041
11405PW       W39149   2.443   2.603   3.650  0.1435 -0.0146 -0.4934
11405PW      WP39150   2.546   2.659   3.726  0.0607 -0.0839 -0.3261
11405PW      WM39151   2.394   2.703   3.735  0.4667 -0.1990 -0.0676
11406PW       W39152   5.270   9.879  12.993 -0.0005  0.3980 -0.0090
11406PW      WP39153   5.208   9.791  12.902  0.0512  0.0536  0.2778
11406PW      WM39154   5.366   9.980  12.990  0.5475 -0.0946 -0.1452
11407PW       W39155  11.806   7.466   4.397  0.6352  0.3167  0.0091
11407PW      WP39156  11.847   7.487   4.264 -0.2615  0.7134 -0.2499
11407PW      WM39157  11.679   7.469   4.456  0.5483  0.1953 -0.1679
11408PW       W39158   0.795   3.256   3.496  0.1304  0.3547  0.2182
11408PW      WP39159   0.898   3.185   3.433 -0.4721 -0.1772 -0.2295
11408PW      WM39160   0.732   3.215   3.614 -0.0686 -0.1454 -0.0492
11409PW       W39161   7.571   8.993   0.846  0.1750 -0.6091  0.1154
11409PW      WP39162   7.688   8.930   0.805  0.3600 -0.1058 -0.1873
11409PW      WM39163   7.585   8.871   0.912 -0.1847 -0.7188  0.0037
11410PW       W39164   1.212   1.299   8.146 -0.0574 -0.0713 -0.3975
11410PW      WP39165   1.085   1.351   8.173  0.0213  0.0449 -0.2432
11410PW      WM39166   1.224   1.184   8.226  0.2338 -0.0124 -0.3502
11411PW       W39167   1.841   0.067  11.249  0.2662  0.3523 -0.5664
11411PW      WP39168   1.786   0.091  11.375 -0.4811  0.0639 -0.8076
11411PW      WM39169   1.967   0.034  11.197  0.3223 -0.6078  0.0605
11412PW       W39170   5.151   9.414   2.760  0.0720  0.3861 -0.0273
11412PW      WP39171   5.012   9.431   2.759 -0.0188 -0.2213  0.0635
11412PW      WM39172   5.203   9.453   2.883 -0.2248 -0.1922  0.3012
11413PW       W39173   5.775   5.889   9.148  0.2310  0.1473  0.2020
11413PW      WP39174   5.870   5.797   9.102 -0.0653  0.0415 -0.2376
11413PW      WM39175   5.819   6.014   9.193  0.5490  0.0358  0.2160
11414PW       W39176   9.920   3.779   4.408 -0.4096  0.1729 -0.3131
11414PW      WP39177   9.817   3.805   4.498 -0.2608 -0.0535 -0.0730
11414PW      WM39178   9.917   3.728   4.538 -0.0601 -0.0449 -0.3829
11415PW       W39179   1.590   6.658   0.829  0.7373 -0.3926 -0.0137
11415PW      WP39180   1.589   6.672   0.968  0.4112  0.2004 -0.0589
11415PW      WM39181   1.672   6.721   0.735  0.0827 -0.4110 -0.6335
11416PW       W39182   9.811  10.753   0.728  0.1738  0.2194 -0.1278
11416PW      WP39183   9.856  10.839   0.828 -0.0799  0.3355 -0.1105
11416PW      WM39184   9.711  10.707   0.640 -0.0554  0.4136  0.0252
11417PW       W39185  11.959   8.239   1.918 -0.3454  0.1159  0.0041
11417PW      WP39186  11.919   8.346   1.999 -0.1262  0.2684 -0.0831
11417PW      WM39187  12.036   8.209   2.031 -0.0545  0.0905 -0.1933
11418PW       W39188   2.406   1.930  12.455  0.3808 -0.1287  0.2430
11418PW      WP39189   2.380   1.986  12.580 -0.4401  0.0779  0.0114
11418PW      WM39190   2.423   1.791  12.448  0.1083 -0.1552 -0.0084
11419PW       W39191   1.062  11.521   0.734  0.1740 -0.3058  0.2779
11419PW      WP39192   1.027  11.438   0.627  0.2088  0.0118  0.0137
11419PW      WM39193   1.086  11.398   0.797 -0.1539 -0.1708  0.6939
11420PW       W39194   7.868   7.821   4.633  0.1069  0.0250 -0.2836
11420PW      WP39195   7.783   7.871   4.732  0.2012 -0.1685 -0.0998
11420PW      WM39196   7.935   7.922   4.564  0.3848  0.0563  0.0186
11421PW       W39197   7.631   4.677   0.660  0.3450  0.0852  0.2208
11421PW      WP39198   7.554   4.723   0.767 -0.1578  0.1932 -0.1673
11421PW      WM39199   7.769   4.698   0.658  0.3269  0.2373  0.4321
11422PW       W39200  10.407   6.024   9.503 -0.6119 -0.0027  0.2076
11422PW      WP39201  10.453   6.153   9.477 -0.3931 -0.1865 -0.4190
11422PW      WM39202  10.312   5.977   9.411  0.0837 -0.4257 -0.3509
11423PW       W39203   4.129   2.439   3.831  0.0219  0.2240 -0.0815
11423PW      WP39204   3.995   2.443   3.872  0.1605  0.2827  0.4039
11423PW      WM39205   4.135   2.569   3.779 -0.1387  0.1885 -0.1958
11424PW       W39206   7.126  10.421  11.812  0.4684 -0.0596 -0.1842
11424PW      WP39207   7.046  10.523  11.760 -0.2020 -0.6266 -0.3388
11424PW      WM39208   7.190  10.455  11.932 -0.2964  0.2869  0.1585
11425PW       W39209  11.891   0.364   1.378  0.1194  0.1540  0.1521
11425PW      WP39210  11.819   0.309   1.270  0.4647  0.0340 -0.0258
11425PW      WM39211  11.951   0.359   1.504 -0.0503 -0.0950  0.2265
11426PW       W39212   7.355   2.821  10.397  0.8427  0.2531  0.2477
11426PW      WP39213   7.423   2.699  10.412 -0.1133 -0.3124  0.3926
11426PW      WM39214   7.285   2.815  10.518 -0.0023 -0.0578 -0.2139
11427PW       W39215  11.652   7.913  11.970 -0.2003  0.0702 -0.1258
11427PW      WP39216  11.734   7.982  11.879 -0.3075 -0.0158 -0.2881
11427PW      WM39217  11.709   7.797  12.024  0.1989  0.1876 -0.2712
11428PW       W39218   5.932   6.700  12.612  0.0291  0.6339 -0.7133
11428PW      WP39219   5.891   6.668  12.482  0.1479  0.0324 -0.6166
11428PW      WM39220   6.055   6.678  12.676 -0.3030 -0.2789 -0.3101
11429PW       W39221   9.233   0.379  12.067 -0.1805  0.1130  0.5232
11429PW      WP39222   9.185   0.329  12.188  0.0521 -0.2341  0.4774
11429PW      WM39223   9.348   0.321  12.013 -0.5963 -0.0589 -0.2463
11430PW       W39224  11.692   5.625   9.864  0.0479 -0.1607  0.0999
11430PW      WP39225  11.671   5.662   9.731  0.0998 -0.3125  0.0489
11430PW      WM39226  11.755   5.703   9.766  0.0347 -0.0469  0.1805
11431PW       W39227   4.240   4.753   8.412 -0.0767  0.0922  0.1959
11431PW      WP39228   4.346   4.663   8.396 -0.2547 -0.0621 -0.1721
11431PW      WM39229   4.348   4.704   8.486 -0.2212 -0.7736 -0.1049
11432PW       W39230   0.373   1.510   2.272 -0.2950 -0.0279 -0.1315
11432PW      WP39231   0.461   1.496   2.165  0.2782  0.4560  0.2387
11432PW      WM39232   0.282   1.512   2.379 -0.3335 -0.3548 -0.1522
11433PW       W39233   5.060   3.280  11.826 -0.0802 -0.1926  0.7078
11433PW      WP39234   5.185   3.337  11.853  0.2240 -0.1568 -0.4718
11433PW      WM39235   5.126   3.221  11.717 -0.4887 -0.0287  0.3561
11434PW       W39236   7.884   1.359  11.532 -0.1703  0.1674 -0.2000
11434PW      WP39237   8.005   1.290  11.525  0.0402  0.5487 -0.4741
11434PW      WM39238   7.878   1.345  11.393 -0.0460 -0.3891 -0.1610
11435PW       W39239   3.467  11.276   9.440  0.3654  0.1611  0.1726
11435PW      WP39240   3.492  11.282   9.302 -0.1373 -0.2685  0.0485
11435PW      WM39241   3.597  11.251   9.487  0.6067 -0.3059 -0.6337
11436PW       W39242   5.691   6.412  12.280 -0.0886  0.1023  0.0613
11436PW      WP39243   5.701   6.500  12.172  0.0772  0.3199  0.2507
11436PW      WM39244   5.823   6.416  12.324 -0.0926 -0.0457  0.0916
11437PW       W39245   1.738   7.556  12.840 -0.5340 -0.5260 -0.4376
11437PW      WP39246   1.698   7.655  12.930  0.3530 -0.2773 -0.2721
11437PW      WM39247   1.841   7.549  12.745 -0.4362 -0.0103 -0.3800
11438PW       W39248   5.401   0.708   3.120  0.1338  0.2259 -0.1483
11438PW      WP39249   5.302   0.796   3.075  0.2064  0.2574 -0.2473
11438PW      WM39250   5.321   0.615   3.187  0.4335  0.1156  0.0677
11439PW       W39251   8.364  10.171  10.704 -0.1096 -0.1629 -0.3298
11439PW      WP39252   8.249  10.092  10.692  0.0055 -0.3718 -0.1169
11439PW      WM39253   8.325  10.299  10.745  0.5775 -0.0442  0.0504
11440PW       W39254   1.711   4.344   3.627 -0.0572  0.0646 -0.0021
11440PW      WP39255   1.725   4.480   3.656 -0.1233  0.1456 -0.3305
11440PW      WM39256   1.643   4.258   3.540 -0.0212  0.5006 -0.4865
11441PW       W39257   9.534   6.147   4.098 -0.0962 -0.0524 -0.0464
11441PW      WP39258   9.541   6.060   3.989 -0.0750 -0.7861  0.5009
11441PW      WM39259   9.640   6.095   4.173 -0.0113  0.3720  0.1452
11442PW       W39260   4.810  12.073   9.013 -0.1946  0.0061  0.1688
11442PW      WP39261   4.919  12.041   9.095  0.0913 -0.2240 -0.2823
11442PW      WM39262   4.859  12.126   8.893  0.1525 -0.3626  0.1387
11443PW       W39263   2.927   6.440  13.393  0.4163 -0.1994 -0.0531
11443PW      WP39264   2.998   6.558  13.368  0.0671 -0.0343 -0.3099
11443PW      WM39265   2.944   6.345  13.291  0.4657  0.3938 -0.6310
11444PW       W39266  11.366  12.039   2.026 -0.0325 -0.4300  0.1733
11444PW      WP39267  11.462  12.121   2.086 -0.0801  0.2351 -0.5732
11444PW      WM39268  11.447  11.937   2.077  0.4628 -0.0291  0.2253
11445PW       W39269   3.060   8.827   9.452  0.6603 -0.0625  0.0664
11445PW      WP39270   3.058   8.710   9.529 -0.0088 -0.0672  0.0755
11445PW      WM39271   3.022   8.949   9.395 -0.0765 -0.0237  0.5591
11446PW       W39272   8.074  11.130   2.639 -0.1496 -0.0755  0.1878
11446PW      WP39273   8.127  11.211   2.538  0.6977 -0.3482  0.3691
11446PW      WM39274   8.190  11.206   2.663 -0.0840 -0.1112 -0.0102
11447PW       W39275   4.451   1.767   1.421 -0.2119  0.3158  0.1145
11447PW      WP39276   4.486   1.639   1.466  0.1133  0.3566 -0.0041
11447PW      WM39277   4.511   1.893   1.416  0.2340  0.1091 -0.1888
11448PW       W39278   0.372   0.965   0.777 -0.2457  0.1551 -0.3521
11448PW      WP39279   0.349   0.969   0.639 -0.3506  0.0760 -0.3374
11448PW      WM39280   0.477   1.037   0.835 -0.0943 -0.2369 -0.1184
11449PW       W39281   9.234  11.496  12.389  0.0344 -0.3968  0.0910
11449PW      WP39282   9.213  11.496  12.250 -0.0379 -0.0806  0.0992
11449PW      WM39283   9.239  11.550  12.518  0.1116 -0.3975  0.0882
11450PW       W39284   0.720   8.918  10.255  0.3867 -0.0043  0.6450
11450PW      WP39285   0.788   9.005  10.341  0.2759  0.8549 -0.0702
11450PW      WM39286   0.829   8.833  10.230 -0.3126 -0.7717 -0.1504
11451PW       W39287   2.183   5.150   4.481  0.3738  0.2508  0.1233
11451PW      WP39288   2.289   5.108   4.401  0.1473 -0.2564  0.0736
11451PW      WM39289   2.235   5.069   4.582  0.2084  0.1822  0.1555
11452PW       W39290   4.924   6.142   8.534 -0.1298  0.0728 -0.1697
11452PW      WP39291   4.880   6.021   8.590 -0.1382  0.0605 -0.2022
11452PW      WM39292   5.043   6.212   8.514 -0.1587  0.1458 -0.0884
11453PW       W39293   7.471   8.886   3.718  0.1477  0.0682  0.2466
11453PW      WP39294   7.483   8.746   3.717  0.0304  0.0579  0.0951
11453PW      WM39295   7.349   8.943   3.679  0.1874 -0.0793 -0.1187
11454PW       W39296  11.559   8.389  11.993 -0.2971  0.0180 -0.1518
11454PW      WP39297  11.470   8.294  12.043  0.3009 -0.4145  0.1589
11454PW      WM39298  11.534   8.399  11.856  0.2828  0.1826 -0.2609
11455PW       W39299   3.515   5.718  11.311  0.5030 -0.1348  0.1114
11455PW      WP39300   3.581   5.657  11.204  0.1644 -0.2430 -0.0415
11455PW      WM39301   3.580   5.824  11.376 -0.0715  0.1771  0.2131
11456PW       W39302   1.217   1.526   2.039  0.1966 -0.0563  0.1986
11456PW      WP39303   1.333   1.493   2.110  0.4117  0.0675 -0.0888
11456PW      WM39304   1.101   1.520   2.118 -0.0407  0.2034 -0.1167
11457PW       W39305   8.288  11.048   0.485  0.0943  0.1965 -0.0911
11457PW      WP39306   8.296  11.158   0.571 -0.1398 -0.0344  0.2407
11457PW      WM39307   8.210  11.067   0.371  0.0268 -0.4296 -0.1675
11458PW       W39308  10.913   6.422   0.519 -0.0633  0.1170 -0.3080
11458PW      WP39309  10.855   6.408   0.646 -0.1409 -0.0068 -0.3563
11458PW      WM39310  11.042   6.472   0.541  0.0204 -0.2181  0.0136
11459PW       W39311   1.809   0.851  13.124  0.1606 -0.2366 -0.2680
11459PW      WP39312   1.692   0.806  13.063  0.1391 -0.4536 -0.0718
11459PW      WM39313   1.944   0.834  13.092  0.2468 -0.4317  0.1657
11460PW       W39314   2.819   2.655  12.966  0.1359 -0.0324 -0.0633
11460PW      WP39315   2.767   2.783  12.940  0.0322  0.0419  0.4478
11460PW      WM39316   2.708   2.569  12.976  0.0915  0.0349  0.0386
11461PW       W39317   1.311   1.701   4.771 -0.6848  0.1182  0.2850
11461PW      WP39318   1.424   1.732   4.847  0.0944 -0.1782 -0.6473
11461PW      WM39319   1.392   1.608   4.705  0.0053  0.7672  0.1493
11462PW       W39320   4.005   5.049   5.542 -0.5306  0.2831 -0.0170
11462PW      WP39321   4.004   4.987   5.416  0.4508  0.4174 -0.1305
11462PW      WM39322   4.049   5.056   5.410 -0.2707  0.1010  0.0557
11463PW       W39323   1.397   3.676  10.723 -0.1605  0.2238 -0.2635
11463PW      WP39324   1.447   3.778  10.805  0.2051 -0.1626  0.0194
11463PW      WM39325   1.386   3.570  10.631 -0.2732 -0.3551  0.3709
11464PW       W39326   1.032   4.064   1.077  0.3206 -0.4814  0.5584
11464PW      WP39327   0.899   4.021   1.059  0.1754  0.2108 -0.3407
11464PW      WM39328   1.156   4.000   1.064  0.2064 -0.6274  0.1049
11465PW       W39329   7.066  10.780  11.221 -0.0011  0.0069  0.6343
11465PW      WP39330   6.970  10.882  11.225 -0.0704 -0.0314  0.2175
11465PW      WM39331   7.178  10.798  11.139 -0.2471  0.3522  0.3545
11466PW       W39332   4.487  10.256   2.281 -0.5207  0.3524  0.1049
11466PW      WP39333   4.616  10.246   2.335 -0.5633  0.3594  0.2093
11466PW      WM39334   4.401  10.197   2.189  0.0231  0.0154 -0.2160
11467PW       W39335   3.919   3.132   0.053  0.4468  0.3764  0.0316
11467PW      WP39336   3.889   3.218  -0.053 -0.0993  0.3233  0.1289
11467PW      WM39337   3.919   3.080   0.183  0.3510 -0.1348 -0.1626
11468PW       W39338   7.484  11.488   8.716  0.2464  0.3176  0.1318
11468PW      WP39339   7.345  11.484   8.716  0.2320  0.5776 -0.2024
11468PW      WM39340   7.528  11.363   8.761  0.2892  0.1641 -0.3115
11469PW       W39341   5.201  10.667   4.172 -0.1640 -0.1789 -0.4139
11469PW      WP39342   5.107  10.657   4.275  0.0694 -0.1880 -0.1984
11469PW      WM39343   5.182  10.601   4.050  0.3070  0.0549 -0.6261
11470PW       W39344   7.462  11.219  12.777  0.0507  0.1978 -0.0270
11470PW      WP39345   7.579  11.280  12.824 -0.1521  0.0468  0.7285
11470PW      WM39346   7.515  11.094  12.745 -0.2134  0.0564  0.0758
11471PW       W39347   5.335   2.772   9.275 -0.0284 -0.2032  0.1348
11471PW      WP39348   5.244   2.713   9.364  0.1339 -0.1820  0.3173
11471PW      WM39349   5.356   2.834   9.151  0.2548  0.1597  0.3539
11472PW       W39350   5.159   0.979   4.178 -0.1168  0.4017 -0.2942
11472PW      WP39351   5.026   0.938   4.157 -0.1125  0.4600 -0.4436
11472PW      WM39352   5.289   1.006   4.134  0.1191  0.4737  0.3908
11473PW       W39353   3.887  10.101  12.747  0.1988 -0.0271  0.5047
11473PW      WP39354   3.937  10.196  12.657  0.3758 -0.6054 -0.0494
11473PW      WM39355   3.942   9.987  12.686 -0.2242 -0.0326  0.1099
11474PW       W39356   8.912   5.942   4.858  0.1517  0.3061  0.0247
11474PW      WP39357   8.922   6.035   4.962  0.1461  0.0695  0.2438
11474PW      WM39358   8.994   5.830   4.838 -0.2921  0.0333 -0.3653
11475PW       W39359   2.030   1.568   4.809  0.0416  0.1055  0.2035
11475PW      WP39360   2.127   1.620   4.896 -0.0323  0.1579  0.2554
11475PW      WM39361   1.923   1.496   4.756  0.2304 -0.1217  0.1212
11476PW       W39362   7.158   1.127   9.669 -0.1381  0.3875  0.0078
11476PW      WP39363   7.250   1.167   9.767 -0.0331  0.4480 -0.1148
11476PW      WM39364   7.211   1.232   9.593  0.4232 -0.2439 -0.5259
11477PW       W39365  10.318   0.909   3.757 -0.0240  0.1995 -0.0772
11477PW      WP39366  10.185   0.885   3.792  0.0888  0.1536  0.3627
11477PW      WM39367  10.356   0.814   3.853  0.2417  0.5608  0.1912
11478PW       W39368   1.772  10.233   0.351  0.0421 -0.1165 -0.1045
11478PW      WP39369   1.668  10.290   0.425 -0.0631 -0.3165 -0.0951
11478PW      WM39370   1.852  10.295   0.254  0.0023  0.0947 -0.0035
11479PW       W39371   6.342   3.880   4.499 -0.3908  0.3100 -0.1048
11479PW      WP39372   6.341   3.866   4.360  0.1101 -0.0331 -0.0878
11479PW      WM39373   6.441   3.922   4.589 -0.4382  0.1205  0.0385
11480PW       W39374   3.850   5.894   9.457  0.1000  0.3976  0.3107
11480PW      WP39375   3.759   5.815   9.528  0.2646 -0.0649  0.0299
11480PW      WM39376   3.915   5.789   9.393  0.0913  0.3704  0.3463
11481PW       W39377   2.504   2.278   1.708 -0.0290 -0.3606  0.1589
11481PW      WP39378   2.438   2.208   1.605 -0.1600  0.1964 -0.1568
11481PW      WM39379   2.420   2.384   1.744  0.0814 -0.0174 -0.5043
11482PW       W39380   0.715   5.133  12.928 -0.4254 -0.1353  0.2789
11482PW      WP39381   0.640   5.238  12.876 -0.3680 -0.3178 -0.1923
11482PW      WM39382   0.832   5.198  12.970 -0.1753 -0.5096  0.1894
11483PW       W39383   5.512   6.782  13.076 -0.3461  0.0753  0.0403
11483PW      WP39384   5.583   6.894  13.032 -0.0025 -0.1488  0.0052
11483PW      WM39385   5.450   6.881  13.154  0.4029  0.5101  0.1258
11484PW       W39386   2.847   5.213  12.506  0.0835 -0.5535 -0.5812
11484PW      WP39387   2.762   5.129  12.434 -0.4357 -0.4151 -0.1655
11484PW      WM39388   2.876   5.134  12.619 -0.1236 -0.1673 -0.2433
11485PW       W39389   7.043   1.683   4.502  0.3572  0.0945 -0.0510
11485PW      WP39390   6.949   1.688   4.606  0.1026 -0.0893 -0.2645
11485PW      WM39391   6.979   1.717   4.382  0.2072 -0.0140 -0.0041
11486PW       W39392   1.236   5.626   9.580  0.0169 -0.2230  0.1135
11486PW      WP39393   1.119   5.559   9.542 -0.1157  0.1340 -0.1363
11486PW      WM39394   1.365   5.602   9.530  0.2112  0.2856  0.3340
11487PW       W39395   9.443   7.677   1.398 -0.2314 -0.4781  0.6897
11487PW      WP39396   9.458   7.584   1.295  0.2867 -0.3113  0.6017
11487PW      WM39397   9.355   7.772   1.346  0.2733 -0.2394  0.2252
11488PW       W39398   1.271   0.690   9.849  0.0555 -0.4914  0.0859
11488PW      WP39399   1.138   0.734   9.850  0.2037 -0.0085  0.1654
11488PW      WM39400   1.314   0.776   9.952  0.3496 -0.1647 -0.2944
11489PW       W39401   1.124   4.635   9.634  0.0080  0.1478 -0.1040
11489PW      WP39402   1.235   4.709   9.592 -0.0831  0.3290 -0.0320
11489PW      WM39403   1.199   4.519   9.614 -0.1008  0.0201  0.1942
11490PW       W39404   9.258   6.818   1.915 -0.0528  0.1764 -0.4080
11490PW      WP39405   9.159   6.723   1.887 -0.2284  0.1883  0.1086
11490PW      WM39406   9.394   6.849   1.919 -0.1666  0.7154 -0.0823
11491PW       W39407   0.065   8.562  13.103 -0.1975 -0.4272  0.2305
11491PW      WP39408   0.001   8.460  13.032  0.0683 -0.2013 -0.3688
11491PW      WM39409  -0.011   8.676  13.074 -0.0267 -0.3469  0.0870
11492PW       W39410   4.824   4.840  13.002  0.3608  0.1873  0.0284
11492PW      WP39411   4.856   4.963  13.060 -0.1290  0.3337  0.0082
11492PW      WM39412   4.910   4.838  12.893  0.3829 -0.0003  0.0466
11493PW       W39413   7.576   7.448   3.024  0.3501 -0.2380 -0.1200
11493PW      WP39414   7.605   7.483   3.156 -0.0268 -0.0582 -0.0802
11493PW      WM39415   7.606   7.366   3.133  0.2351  0.0555  0.1406
11494PW       W39416   1.638  12.129   2.203 -0.0851  0.6123  0.3814
11494PW      WP39417   1.550  12.204   2.124 -0.0332 -0.2029 -0.5495
11494PW      WM39418   1.753  12.050   2.219 -0.4584  0.0113  0.2896
11495PW       W39419   4.250   0.708  11.493 -0.3126  0.1444  0.0429
11495PW      WP39420   4.198   0.658  11.373 -0.1834 -0.2590  0.1494
11495PW      WM39421   4.338   0.785  11.570 -0.0278 -0.0211 -0.1088
11496PW       W39422   8.140   7.951   1.662 -0.0777  0.1113  0.0864
11496PW      WP39423   8.079   8.076   1.643 -0.4363 -0.0775 -0.0656
11496PW      WM39424   8.233   8.051   1.632 -0.0015  0.0637  0.1617
11497PW       W39425  11.314  11.831   4.647 -0.0808  0.5913  0.0560
11497PW      WP39426  11.315  11.804   4.510 -0.2114 -0.1468  0.1804
11497PW      WM39427  11.424  11.795   4.727 -0.0771 -0.0608 -0.2131
11498PW       W39428   4.411  11.016   3.048 -0.1237  0.1737 -0.4595
11498PW      WP39429   4.475  11.014   2.924  0.4513  0.3029 -0.1821
11498PW      WM39430   4.345  10.906   3.105  0.1153  0.2870  0.0684
11499PW       W39431   6.955   3.288   8.724  0.3774 -0.0441  0.0580
11499PW      WP39432   7.052   3.315   8.822  0.2352  0.0300  0.1791
11499PW      WM39433   6.864   3.300   8.618 -0.2958 -0.1139  0.5947
11500PW       W39434   1.403  11.395  10.349  0.2434  0.3293  0.2683
11500PW      WP39435   1.362  11.502  10.269 -0.0632  0.0799  0.0814
11500PW      WM39436   1.505  11.427  10.440  0.4942 -0.3663  0.2595
11501PW       W39437   9.553  10.115   3.005 -0.1404 -0.0624 -0.3989
11501PW      WP39438   9.677  10.129   2.943 -0.0384 -0.3692 -0.2747
11501PW      WM39439   9.539  10.056   2.879  0.3811 -0.6389 -0.2154
11502PW       W39440   2.191  10.317  11.745 -0.0762  0.0209  0.2220
11502PW      WP39441   2.213  10.380  11.868  0.1076  0.5420 -0.0615
11502PW      WM39442   2.302  10.273  11.673 -0.5083 -0.1515 -0.3779
11503PW       W39443  10.982   3.870  12.536 -0.4782  0.2544 -0.1345
11503PW      WP39444  10.960   3.822  12.666  0.0917 -0.3718 -0.2445
11503PW      WM39445  11.108   3.905  12.587 -0.1335 -0.5873 -0.3165
11504PW       W39446   1.592   5.701  11.999 -0.3513 -0.1686 -0.0734
11504PW      WP39447   1.677   5.594  12.029 -0.1669  0.0627  0.2611
11504PW      WM39448   1.690   5.608  11.962 -0.2268  0.0694 -0.3682
11505PW       W39449  11.992   2.067  13.289  0.5236 -0.0773 -0.1594
11505PW      WP39450  11.982   2.189  13.358 -0.0355 -0.2391  0.0733
11505PW      WM39451  12.025   1.938  13.333 -0.0231 -0.1045  0.2220
11506PW       W39452   2.395  11.160   0.860  0.1253 -0.3973  0.0295
11506PW      WP39453   2.346  11.288   0.891  0.1666 -0.5231  0.6789
11506PW      WM39454   2.364  11.025   0.876  0.2165 -0.4144  0.0642
11507PW       W39455   4.804   4.311   5.288  0.4979  0.0446  0.0835
11507PW      WP39456   4.834   4.447   5.289  0.0636  0.1488 -0.0635
11507PW      WM39457   4.932   4.301   5.233  0.7054 -0.3294  0.5938
11508PW       W39458   7.942   2.788  11.701  0.3076  0.0802 -0.2926
11508PW      WP39459   7.977   2.655  11.727  0.3082  0.1369  0.0117
11508PW      WM39460   7.821   2.763  11.634 -0.3316 -0.2218  0.8301
11509PW       W39461  12.051   0.153   0.986 -0.0879 -0.2577  0.1819
11509PW      WP39462  12.099   0.100   0.865 -0.1095  0.1470 -0.0113
11509PW      WM39463  11.957   0.135   1.088 -0.0119 -0.1667  0.2690
11510PW       W39464   2.654   8.986   4.514  0.3660  0.4527 -0.1047
11510PW      WP39465   2.738   8.920   4.605 -0.1411  0.2249  0.2182
11510PW      WM39466   2.679   8.915   4.396  0.2290 -0.0588  0.1595
11511PW       W39467   7.762   1.994   0.105 -0.0617 -0.3987  0.1274
11511PW      WP39468   7.778   1.951   0.237  0.0122 -0.0558  0.2355
11511PW      WM39469   7.640   2.055   0.074  0.1925  0.0823  0.0116
11512PW       W39470  11.995   1.413   9.218 -0.0743  0.1638 -0.4176
11512PW      WP39471  11.895   1.508   9.197 -0.1680  0.1725  0.0184
11512PW      WM39472  12.134   1.409   9.232 -0.1199 -0.1388  0.0658
11513PW       W39473  11.863   1.009  12.612  0.1745  0.1118  0.2118
11513PW      WP39474  11.783   1.114  12.658  0.3236  0.3658 -0.0870
11513PW      WM39475  11.927   0.968  12.495 -0.1071  0.7450 -0.1898
11514PW       W39476   2.457  11.702  13.146 -0.2130  0.1222 -0.0992
11514PW      WP39477   2.328  11.755  13.154 -0.0649  0.5058 -0.1740
11514PW      WM39478   2.464  11.571  13.196 -0.2898  0.2062  0.1341
11515PW       W39479   8.812  10.518  13.069  0.1224  0.3307 -0.0543
11515PW      WP39480   8.793  10.640  13.002 -0.0293  0.3047 -0.0619
11515PW      WM39481   8.755  10.428  13.160  0.3764  0.2084 -0.0135
11516PW       W39482   2.653  10.928  10.192  0.2945 -0.1621  0.2318
11516PW      WP39483   2.681  10.946  10.328  0.5574 -0.0761  0.1688
11516PW      WM39484   2.707  10.800  10.180 -0.2817 -0.3786 -0.3688
11517PW       W39485   3.182   3.625  10.062  0.2367 -0.7657  0.1864
11517PW      WP39486   3.295   3.705  10.046 -0.1807 -0.1072  0.3392
11517PW      WM39487   3.123   3.676  10.178  0.2376 -0.4141  0.0370
11518PW       W39488   8.858   9.741  10.846  0.0929  0.0791  0.2264
11518PW      WP39489   8.853   9.735  10.706 -0.1564 -0.1756  0.2411
11518PW      WM39490   8.986   9.698  10.810  0.0334  0.1787 -0.1250
11519PW       W39491  10.275   2.691   9.621  0.1144 -0.1615  0.5124
11519PW      WP39492  10.326   2.803   9.553 -0.5786  0.0339  0.2721
11519PW      WM39493  10.143   2.693   9.575  0.1664 -0.8589  0.2797
11520PW       W39494   5.937   2.235   0.335  0.1882  0.1160  0.3056
11520PW      WP39495   5.997   2.347   0.393 -0.0642  0.2702  0.2741
11520PW      WM39496   5.805   2.244   0.290  0.1868  0.3917  0.3554
11521PW       W39497   3.940   9.081   1.711 -0.3434 -0.0887 -0.0778
11521PW      WP39498   3.936   9.090   1.850 -0.1481  0.5502 -0.0968
11521PW      WM39499   3.842   9.181   1.720 -0.3715 -0.1407  0.2268
11522PW       W39500   7.504  11.606  10.290  0.0610 -0.6387  0.2379
11522PW      WP39501   7.560  11.679  10.185 -0.2657 -0.0964  0.4197
11522PW      WM39502   7.634  11.616  10.342  0.1314 -0.0659 -0.0050
11523PW       W39503   3.111   9.052   1.443 -0.0833 -0.1453 -0.6695
11523PW      WP39504   3.024   8.954   1.490 -0.2270  0.3333  0.1602
11523PW      WM39505   3.249   9.038   1.422  0.0809  0.2847 -0.0189
11524PW       W39506  10.889   2.221   9.962 -0.1404 -0.2894 -0.1924
11524PW      WP39507  10.938   2.224  10.093 -0.1296 -0.0498 -0.1997
11524PW      WM39508  10.777   2.304   9.981  0.0166 -0.1252  0.0495
11525PW       W39509  11.666   0.101   3.355 -0.2356  0.0396  0.1750
11525PW      WP39510  11.786   0.036   3.384 -0.2009 -0.1209 -0.2830
11525PW      WM39511  11.741   0.215   3.385  0.0517 -0.1982  0.3806
11526PW       W39512   4.342  10.100   4.530 -0.3970  0.3860  0.2740
11526PW      WP39513   4.384  10.233   4.518  0.1275  0.2005 -0.1375
11526PW      WM39514   4.279   9.996   4.600  0.0616 -0.4627 -0.4675
11527PW       W39515   8.148   3.879  11.436 -0.0319 -0.1017 -0.0728
11527PW      WP39516   8.154   3.980  11.532  0.0207 -0.0165 -0.1655
11527PW      WM39517   8.050   3.826  11.350 -0.0355 -0.1047 -0.0669
11528PW       W39518   3.026   1.365  11.186  0.3762 -0.3595 -0.4102
11528PW      WP39519   2.901   1.335  11.241  0.5300 -0.0922  0.1174
11528PW      WM39520   3.118   1.435  11.265  0.0601 -0.3727 -0.0077
11529PW       W39521   8.091   3.962  12.415 -0.2371  0.1647 -0.1102
11529PW      WP39522   8.114   4.100  12.419 -0.1216  0.1659 -0.5166
11529PW      WM39523   8.005   3.903  12.321 -0.1021 -0.5390  0.1819
11530PW       W39524   7.384   9.618   2.126 -0.1354  0.1988  0.0252
11530PW      WP39525   7.523   9.615   2.143 -0.0183  0.0375 -0.7655
11530PW      WM39526   7.344   9.708   2.225  0.2069  0.0482  0.3138
11531PW       W39527  11.116   9.898   5.108  0.4256  0.2536 -0.1876
11531PW      WP39528  11.227   9.814   5.119  0.1156 -0.1637 -0.1251
11531PW      WM39529  11.050   9.977   5.013  0.1224  0.0715 -0.1338
11532PW       W39530   8.516   9.915   1.566  0.0991 -0.2074 -0.0934
11532PW      WP39531   8.411   9.943   1.478  0.2490  0.0442 -0.1966
11532PW      WM39532   8.546   9.856   1.690  0.0302  0.0970  0.0723
11533PW       W39533   6.526   9.723   2.452  0.0379  0.2940  0.3966
11533PW      WP39534   6.435   9.808   2.517 -0.6061  0.1063 -0.1982
11533PW      WM39535   6.472   9.596   2.476 -0.0032  0.1827 -0.2115
11534PW       W39536   3.326   1.757   4.722 -0.2089  0.1986 -0.1340
11534PW      WP39537   3.304   1.620   4.745 -0.3121  0.2568  0.1340
11534PW      WM39538   3.284   1.730   4.591  0.4542  0.0264 -0.3321
11535PW       W39539   1.644   4.215   1.619  0.1245  0.1432 -0.0748
11535PW      WP39540   1.516   4.158   1.612  0.1920 -0.0618  0.2626
11535PW      WM39541   1.665   4.352   1.632 -0.2527  0.1751  0.3246
11536PW       W39542   7.880   8.860   9.509 -0.0481  0.0664 -0.1360
11536PW      WP39543   7.779   8.949   9.472 -0.0189  0.1200 -0.0874
11536PW      WM39544   7.941   8.752   9.443  0.5772 -0.1196  0.6595
11537PW       W39545   3.777   9.046   0.613 -0.3390  0.3739 -0.3874
11537PW      WP39546   3.834   9.100   0.729  0.3124 -0.2231 -0.3931
11537PW      WM39547   3.666   8.962   0.624 -0.2177  0.2406 -0.1094
11538PW       W39548   9.645   1.745   9.962  0.4192  0.0361 -0.0245
11538PW      WP39549   9.566   1.840   9.897  0.0086 -0.3264 -0.0750
11538PW      WM39550   9.592   1.615   9.964 -0.0631  0.2239  0.4073
11539PW       W39551   1.285   1.901   2.425 -0.1078 -0.5547 -0.1284
11539PW      WP39552   1.186   1.990   2.469  0.3460 -0.1951  0.1995
11539PW      WM39553   1.164   1.889   2.355  0.0728 -0.2491 -0.5102
11540PW       W39554   1.125   9.090   8.984  0.0543 -0.4611 -0.0242
11540PW      WP39555   1.081   9.160   8.870  0.1250  0.1154  0.2804
11540PW      WM39556   1.240   9.166   9.010 -0.0765 -0.2640 -0.0122
11541PW       W39557   2.301  10.464  12.224  0.1034 -0.5706  0.1506
11541PW      WP39558   2.400  10.542  12.285  0.1741 -0.1062 -0.4948
11541PW      WM39559   2.225  10.418  12.116 -0.3475  0.0423  0.1822
11542PW       W39560   8.057  11.628   3.843  0.0029  0.0765 -0.0846
11542PW      WP39561   7.951  11.715   3.868  0.3339  0.3698  0.3865
11542PW      WM39562   8.120  11.752   3.835  0.1269  0.0446  0.2749
11543PW       W39563  11.337   2.460  12.323  0.3183 -0.2469 -0.1844
11543PW      WP39564  11.460   2.480  12.386  0.0933 -0.0633  0.2170
11543PW      WM39565  11.342   2.413  12.191 -0.1424  0.2020 -0.3814
11544PW       W39566   9.525   3.625  11.382 -0.1808 -0.0106  0.3431
11544PW      WP39567   9.635   3.657  11.463  0.1023 -0.5031  0.1707
11544PW      WM39568   9.442   3.520  11.342 -0.5740  0.4242 -0.0553
11545PW       W39569   9.054   3.149   0.918 -0.2376  0.0086  0.1481
11545PW      WP39570   9.144   3.042   0.915 -0.1493  0.0793  0.2411
11545PW      WM39571   9.095   3.082   1.034  0.1630  0.0480  0.0391
11546PW       W39572   4.849   2.644  12.086 -0.2789 -0.1685 -0.3361
11546PW      WP39573   4.714   2.606  12.094 -0.2926 -0.2167 -0.6969
11546PW      WM39574   4.837   2.564  12.200  0.1998 -0.3760 -0.4194
11547PW       W39575   0.498  10.029   3.025 -0.5409  0.1490 -0.0770
11547PW      WP39576   0.469  10.047   3.161 -0.2446  0.1340 -0.0089
11547PW      WM39577   0.442  10.103   3.131 -0.3970 -0.1114  0.1880
11548PW       W39578   9.205   8.535   0.891 -0.8065  0.4830 -0.2779
11548PW      WP39579   9.342   8.551   0.867 -0.6366 -0.2675  0.0274
11548PW      WM39580   9.233   8.633   0.986 -0.3383  0.0348  0.0728
11549PW       W39581   7.016   7.353   0.792  0.3331  0.3125  0.1989
11549PW      WP39582   6.888   7.398   0.756  0.2004 -0.1183  0.1006
11549PW      WM39583   7.039   7.242   0.874  0.0053 -0.0490 -0.1773
11550PW       W39584   5.315   7.919   2.234  0.0429  0.0666  0.3029
11550PW      WP39585   5.436   7.950   2.299  0.2786 -0.1827 -0.0024
11550PW      WM39586   5.210   7.903   2.325 -0.3513  0.2164 -0.1097
11551PW       W39587   5.079  10.271  10.098 -0.0418  0.3966 -0.0232
11551PW      WP39588   5.137  10.246   9.973 -0.1727  0.1763 -0.0428
11551PW      WM39589   5.096  10.146  10.037  0.1957  0.1748  0.4616
11552PW       W39590   6.252   4.092   2.569  0.1557  0.2039  0.5533
11552PW      WP39591   6.321   4.025   2.670  0.4667  0.0990  0.2807
11552PW      WM39592   6.345   4.193   2.542 -0.4844  0.6287 -0.3126
11553PW       W39593   2.777   5.504   8.584 -0.1383 -0.0208 -0.6588
11553PW      WP39594   2.731   5.493   8.452 -0.1916 -0.0519 -0.6377
11553PW      WM39595   2.708   5.611   8.643 -0.2923 -0.4740  0.0445
11554PW       W39596   1.344   0.944  11.467 -0.0051  0.1699 -0.1934
11554PW      WP39597   1.301   0.950  11.600 -0.7711 -0.0183 -0.4082
11554PW      WM39598   1.474   0.964  11.517 -0.0582  0.3574 -0.1250
11555PW       W39599   3.802   3.143   8.606  0.1488  0.1859 -0.4527
11555PW      WP39600   3.924   3.179   8.666 -0.1327  0.4251  0.0043
11555PW      WM39601   3.806   3.006   8.632 -0.1021  0.2499 -0.0224
11556PW       W39602   2.520   4.157  11.133  0.1028  0.1962  0.0579
11556PW      WP39603   2.385   4.169  11.167 -0.0947 -0.5105 -0.3789
11556PW      WM39604   2.568   4.230  11.024  0.0873  0.3561  0.1555
11557PW       W39605   7.627  11.934   2.965 -0.0041  0.0167 -0.3122
11557PW      WP39606   7.591  11.844   3.066 -0.0696  0.4383  0.0584
11557PW      WM39607   7.594  12.043   3.046  0.0558 -0.0753 -0.1624
11558PW       W39608   4.129   0.812   1.954  0.0288 -0.1015  0.1098
11558PW      WP39609   4.167   0.718   2.051 -0.5556 -0.0602  0.3958
11558PW      WM39610   4.256   0.871   1.969  0.1836 -0.4094  0.0570
11559PW       W39611   2.800   7.429   1.001 -0.2091 -0.2606  0.2344
11559PW      WP39612   2.858   7.445   1.128 -0.4509 -0.6562  0.4040
11559PW      WM39613   2.760   7.396   0.871 -0.2427  0.3184  0.0832
11560PW       W39614   5.656   8.582  13.159 -0.1189  0.1900  0.6167
11560PW      WP39615   5.554   8.495  13.199 -0.3773  0.1887  0.0142
11560PW      WM39616   5.773   8.596  13.083 -0.3737 -0.1351  0.1450
11561PW       W39617   9.896  10.674   3.368  0.0755 -0.1369  0.1523
11561PW      WP39618  10.028  10.723   3.367  0.0181  0.0531 -0.4837
11561PW      WM39619   9.880  10.732   3.495 -0.0212  0.1038  0.0333
11562PW       W39620   7.328   7.059  10.508 -0.1568  0.0221  0.1198
11562PW      WP39621   7.215   7.011  10.575 -0.2233  0.1395  0.0923
11562PW      WM39622   7.391   7.031  10.386 -0.5695  0.1400 -0.1310
11563PW       W39623   6.571   8.359  10.046  0.4666 -0.2153 -0.2125
11563PW      WP39624   6.481   8.451   9.990  0.4391  0.0584  0.2533
11563PW      WM39625   6.621   8.412   9.926 -0.1417  0.7455 -0.0976
11564PW       W39626   0.056   0.691  12.458  0.1787  0.0921 -0.1556
11564PW      WP39627  -0.078   0.682  12.497  0.2640 -0.0195  0.1260
11564PW      WM39628   0.119   0.566  12.472 -0.0724 -0.0047  0.1665
11565PW       W39629   6.429  10.987   9.469  0.2237  0.2405 -0.1322
11565PW      WP39630   6.313  11.063   9.448  0.0416 -0.0993 -0.4010
11565PW      WM39631   6.540  10.970   9.385 -0.0638  0.1862 -0.5121
11566PW       W39632   7.320  11.281   3.164 -0.0861  0.2151 -0.5588
11566PW      WP39633   7.249  11.368   3.248  0.1705 -0.0322 -0.0652
11566PW      WM39634   7.233  11.387   3.194  0.0007  0.1113  0.1533
11567PW       W39635   8.157   4.906   1.268  0.2903 -0.1131 -0.4011
11567PW      WP39636   8.197   4.993   1.165  0.0346  0.1929 -0.2486
11567PW      WM39637   8.194   4.772   1.251 -0.2523 -0.3294 -0.0190
11568PW       W39638   3.194   8.406   9.672 -0.0870 -0.0611  0.2938
11568PW      WP39639   3.239   8.275   9.649 -0.4547 -0.0633 -0.6988
11568PW      WM39640   3.115   8.507   9.616  0.2692  0.0785  0.0285
11569PW       W39641   8.581   1.723  13.206  0.6889 -0.3098 -0.1799
11569PW      WP39642   8.645   1.603  13.240  0.1855 -0.5830 -0.1487
11569PW      WM39643   8.557   1.861  13.201  0.0246 -0.3797  0.3223
11570PW       W39644   8.733   6.232   3.107  0.3937  0.0754 -0.1600
11570PW      WP39645   8.755   6.192   3.240  0.3922  0.0722 -0.1608
11570PW      WM39646   8.818   6.332   3.059  0.9807 -0.0947  0.4474
11571PW       W39647  10.639   8.678   3.095  0.2042  0.1473  0.0372
11571PW      WP39648  10.549   8.571   3.100  0.2338  0.1337  0.4927
11571PW      WM39649  10.606   8.743   2.976  0.3899 -0.1218 -0.1675
11572PW       W39650  10.351   8.652   0.393  0.0005  0.1594  0.0598
11572PW      WP39651  10.276   8.760   0.344 -0.5392 -0.2488 -0.0613
11572PW      WM39652  10.468   8.640   0.317 -0.0339 -0.3434  0.0714
11573PW       W39653   4.396   7.873   3.069  0.5185  0.2055  0.1133
11573PW      WP39654   4.422   7.894   2.933 -0.3637  0.1789 -0.0893
11573PW      WM39655   4.422   7.743   3.112 -0.2757  0.0908  0.3177
11574PW       W39656   5.276   4.633   4.898  0.1128  0.2030 -0.0656
11574PW      WP39657   5.255   4.683   5.027  0.0682  0.6524 -0.2396
11574PW      WM39658   5.403   4.616   4.954 -0.0317  0.1601  0.2590
11575PW       W39659   2.981  11.945   3.439 -0.5545 -0.3428 -0.0772
11575PW      WP39660   2.934  11.840   3.359 -0.0739 -0.2525 -0.5030
11575PW      WM39661   2.936  12.064   3.497  0.0554 -0.2125  0.1667
11576PW       W39662   5.729   3.736   0.137  0.3508  0.0234  0.0449
11576PW      WP39663   5.788   3.723   0.011  0.0980 -0.0546 -0.0679
11576PW      WM39664   5.800   3.709   0.254  0.4962  0.1783 -0.0048
11577PW       W39665   0.729   3.653  12.215  0.3923  0.5900  0.2482
11577PW      WP39666   0.704   3.617  12.348  0.2105  0.1743  0.1085
11577PW      WM39667   0.683   3.767  12.147 -0.0071  0.1456 -0.2757
11578PW       W39668   7.588   3.875   0.553  0.4632  0.1129  0.3267
11578PW      WP39669   7.659   3.922   0.442 -0.0353  0.3898  0.1052
11578PW      WM39670   7.564   3.815   0.677  0.1318 -0.2918  0.0857
11579PW       W39671  12.139   8.913  10.357  0.2141 -0.0113  0.1102
11579PW      WP39672  12.252   8.859  10.421 -0.0168 -0.3304  0.2630
11579PW      WM39673  12.005   8.952  10.350  0.2254 -0.0144 -0.2333
11580PW       W39674  11.539   2.128   2.790  0.2983 -0.0132 -0.2022
11580PW      WP39675  11.414   2.072   2.823  0.5947 -0.4968  0.1820
11580PW      WM39676  11.641   2.036   2.763  0.4257 -0.0334  0.3010
11581PW       W39677  11.395   4.857   2.341 -0.1090  0.0038  0.1272
11581PW      WP39678  11.344   4.964   2.266 -0.1882  0.0571  0.2546
11581PW      WM39679  11.340   4.736   2.299  0.0667  0.0253 -0.1837
11582PW       W39680   9.161  11.276   3.213 -0.1454 -0.3584 -0.2405
11582PW      WP39681   9.070  11.244   3.315 -0.2380 -0.3383 -0.3168
11582PW      WM39682   9.108  11.314   3.090  0.0711  0.4696 -0.1089
11583PW       W39683   0.193  12.116  11.857 -0.2534  0.0138 -0.3660
11583PW      WP39684   0.171  11.980  11.883 -0.0909  0.0271 -0.1422
11583PW      WM39685   0.131  11.991  11.841 -0.7151  0.2171 -0.2739
11584PW       W39686   3.632   5.373   1.773  0.4591  0.3095  0.0165
11584PW      WP39687   3.649   5.234   1.786 -0.3622  0.0900 -0.7376
11584PW      WM39688   3.573   5.311   1.663  0.3214 -0.3510  0.4346
11585PW       W39689   7.760   5.290   2.221  0.1245  0.1733 -0.0595
11585PW      WP39690   7.712   5.385   2.130 -0.1258  0.2070  0.1016
11585PW      WM39691   7.861   5.378   2.261  0.1992  0.2416 -0.3830
11586PW       W39692   4.407  10.567   4.653  0.4879  0.1581 -0.0747
11586PW      WP39693   4.508  10.659   4.684  0.0710  0.6103  0.0001
11586PW      WM39694   4.420  10.479   4.544  0.0936  0.1187 -0.0985
11587PW       W39695  11.057   9.799   3.378  0.0261  0.2254 -0.0911
11587PW      WP39696  11.125   9.715   3.288 -0.2466 -0.1984  0.0812
11587PW      WM39697  11.136   9.781   3.492 -0.1836  0.2585  0.0612
11588PW       W39698   2.723   3.519   4.080  0.4861  0.2345 -0.2361
11588PW      WP39699   2.792   3.595   4.175  0.3765  0.1615 -0.0958
11588PW      WM39700   2.688   3.570   3.954  1.0939  0.4401 -0.3382
11589PW       W39701   4.967   6.544   1.788  0.1787  0.2459 -0.3058
11589PW      WP39702   4.963   6.589   1.655 -0.2755 -0.0465 -0.4013
11589PW      WM39703   4.884   6.650   1.827 -0.1005 -0.3151  0.8495
11590PW       W39704  11.112   6.706   9.170 -0.2096 -0.5371 -0.1576
11590PW      WP39705  11.107   6.597   9.258 -0.1431 -0.2441  0.2208
11590PW      WM39706  11.167   6.757   9.288 -0.5099  0.3080 -0.3496
11591PW       W39707   7.559   8.268  11.568 -0.0348 -0.1071  0.1472
11591PW      WP39708   7.519   8.134  11.579  0.0699 -0.1546 -0.0339
11591PW      WM39709   7.588   8.404  11.550 -0.5502 -0.0722 -0.7119
11592PW       W39710  11.514   5.467   0.451  0.5538 -0.2691  0.2711
11592PW      WP39711  11.515   5.447   0.312 -0.2867 -0.2459  0.2357
11592PW      WM39712  11.566   5.503   0.576 -0.0775  0.0219  0.4702
11593PW       W39713   9.376   8.287   1.381 -0.2810 -0.8418  0.0395
11593PW      WP39714   9.417   8.168   1.441  0.3243 -0.5619  0.2266
11593PW      WM39715   9.505   8.236   1.362  0.1045  0.0312  0.0730
11594PW       W39716   2.047   8.011  10.221 -0.0200 -0.0300  0.0143
11594PW      WP39717   2.061   7.977  10.356 -0.1064 -0.1366 -0.0020
11594PW      WM39718   1.970   8.098  10.143  0.3124 -0.1793 -0.5068
11595PW       W39719   4.554   1.749   7.937 -0.2263 -0.0378 -0.0322
11595PW      WP39720   4.694   1.742   7.929 -0.2237  0.1331 -0.1712
11595PW      WM39721   4.502   1.673   8.042 -0.3785  0.1314  0.0181
11596PW       W39722   6.729   3.548  12.302  0.0610 -0.2138  0.2062
11596PW      WP39723   6.837   3.513  12.219 -0.3013  0.3569 -0.5604
11596PW      WM39724   6.716   3.600  12.173  0.1598  0.0611  0.3041
11597PW       W39725   2.752   9.895   3.299 -0.1890 -0.1014  0.5369
11597PW      WP39726   2.795   9.766   3.266 -0.2522 -0.0656  0.3086
11597PW      WM39727   2.823   9.808   3.383  0.4443 -0.2035 -0.0592
11598PW       W39728  10.829   1.903  12.707  0.1503  0.0081 -0.3584
11598PW      WP39729  10.823   2.039  12.738 -0.3855 -0.0714 -0.0359
11598PW      WM39730  10.906   1.792  12.744  0.1035  0.0575 -0.0978
11599PW       W39731   2.474   9.816   9.028  0.2395 -0.0416 -0.0333
11599PW      WP39732   2.508   9.930   8.954  0.5162  0.0691  0.2549
11599PW      WM39733   2.371   9.867   9.107  0.2933 -0.4547  0.3177
11600PW       W39734   7.786   5.398  12.607 -0.0179  0.0283 -0.1541
11600PW      WP39735   7.816   5.452  12.482 -0.1136  0.1752 -0.1157
11600PW      WM39736   7.655   5.434  12.642 -0.1324  0.0671 -0.5979
11601PW       W39737   7.752   0.193   9.072 -0.1290 -0.2359 -0.4209
11601PW      WP39738   7.756   0.240   8.940  0.1717 -0.5332 -0.5218
11601PW      WM39739   7.855   0.269   9.128  0.0212 -0.5913 -0.2030
11602PW       W39740   9.667   3.530   8.676  0.0082 -0.2731  0.0547
11602PW      WP39741   9.779   3.505   8.757  0.1624  0.5885  0.1597
11602PW      WM39742   9.633   3.666   8.685 -0.1303 -0.2440 -0.6515
11603PW       W39743   5.812   8.128   4.122  0.0971  0.1482  0.4361
11603PW      WP39744   5.771   8.011   4.187 -0.2953 -0.2502 -0.4338
11603PW      WM39745   5.728   8.236   4.152 -0.0383  0.1929 -0.0575
11604PW       W39746   9.480   9.047   3.379  0.2163 -0.3133 -0.1348
11604PW      WP39747   9.453   9.152   3.290 -0.0213 -0.3033 -0.0537
11604PW      WM39748   9.438   8.968   3.271  0.2083 -0.2845 -0.1529
11605PW       W39749   7.826   7.005   4.021  0.1390 -0.0558  0.2047
11605PW      WP39750   7.933   7.081   4.069 -0.0515  0.8888 -0.6940
11605PW      WM39751   7.824   6.879   3.960  0.4842 -0.2337  0.5365
11606PW       W39752   6.635  11.789   9.011 -0.2598  0.2416  0.0217
11606PW      WP39753   6.650  11.927   9.000 -0.0534  0.2264  0.0911
11606PW      WM39754   6.497  11.776   9.029 -0.2446  0.3496  0.2436
11607PW       W39755   3.110   1.049   0.766  0.2772  0.3616  0.2632
11607PW      WP39756   3.212   0.953   0.767 -0.3019 -0.3249 -0.3815
11607PW      WM39757   3.179   1.015   0.883  0.2367 -0.0992  0.1621
11608PW       W39758  10.214  10.694  10.451 -0.3373  0.1050 -0.0522
11608PW      WP39759  10.205  10.671  10.589  0.4555 -0.0643 -0.0034
11608PW      WM39760  10.338  10.641  10.414 -0.1808  0.3953  0.0359
11609PW       W39761   2.507   8.184  11.068 -0.1654 -0.0563  0.2711
11609PW      WP39762   2.421   8.295  11.075 -0.0631  0.0606 -0.1720
11609PW      WM39763   2.383   8.198  11.004  0.0957  0.1365 -0.2179
11610PW       W39764  10.900   6.199  -0.033  0.5624  0.3045 -0.4726
11610PW      WP39765  10.847   6.329  -0.033  0.0379  0.1091 -0.0723
11610PW      WM39766  10.865   6.180   0.101  0.2267  0.0321 -0.5919
11611PW       W39767   1.530   8.498   8.461  0.2238  0.1147  0.3639
11611PW      WP39768   1.480   8.608   8.532  0.1929 -0.0192  0.5508
11611PW      WM39769   1.493   8.384   8.533  0.1834 -0.0228  0.1322
11612PW       W39770   9.871  11.886   0.877  0.1289 -0.0474 -0.0139
11612PW      WP39771   9.939  11.776   0.822  0.4362 -0.1373  0.5045
11612PW      WM39772   9.944  11.942   0.983  0.3849  0.1428 -0.2838
11613PW       W39773   8.122  10.006  13.179 -0.1582 -0.0083 -0.2360
11613PW      WP39774   8.047   9.890  13.151  0.0648 -0.1176 -0.3929
11613PW      WM39775   8.091  10.139  13.147  0.3022  0.1538 -0.0448
11614PW       W39776   2.522   0.146   4.930  0.6341  0.0830 -0.2862
11614PW      WP39777   2.586   0.156   5.054 -0.1718 -0.0318  0.1743
11614PW      WM39778   2.459   0.150   4.805  0.4596  0.0250 -0.2002
11615PW       W39779   7.949   3.442   5.245  0.0674 -0.4476  0.1788
11615PW      WP39780   7.987   3.369   5.358  0.4551 -0.5575 -0.0132
11615PW      WM39781   7.852   3.358   5.301 -0.3537 -0.1033 -0.0060
11616PW       W39782   4.872  11.924   9.831  0.1577  0.0376  0.5293
11616PW      WP39783   4.953  11.819   9.876 -0.0407 -0.2021  0.3459
11616PW      WM39784   4.827  11.865   9.950 -0.4255 -0.0440  0.2870
11617PW       W39785  10.181   9.746   3.853 -0.3171 -0.2196  0.1460
11617PW      WP39786  10.236   9.637   3.784  0.1664  0.2028 -0.1761
11617PW      WM39787  10.198   9.688   3.979  0.0363  0.0989  0.2526
11618PW       W39788   1.404   7.865   0.291 -0.0644 -0.0570  0.1711
11618PW      WP39789   1.383   7.731   0.327  0.0927 -0.0613  0.2521
11618PW      WM39790   1.509   7.773   0.304 -0.2264 -0.2582  0.0913
11619PW       W39791   2.570   7.312   8.194 -0.1079  0.3001 -0.1584
11619PW      WP39792   2.527   7.204   8.273  0.7697  0.4286  0.5863
11619PW      WM39793   2.591   7.406   8.296  0.2828  0.2064 -0.1445
11620PW       W39794   0.431   9.564   2.770  0.2298 -0.1213  0.4598
11620PW      WP39795   0.346   9.510   2.867 -0.1520  0.2335  0.3349
11620PW      WM39796   0.455   9.471   2.667  0.0649  0.0936  0.2217
11621PW       W39797   2.367   7.741   0.159  0.0974  0.1724 -0.2690
11621PW      WP39798   2.489   7.675   0.139  0.0588  0.0614 -0.1446
11621PW      WM39799   2.369   7.629   0.075  0.1020 -0.1339  0.1275
11622PW       W39800   4.338   0.138   0.551  0.1549  0.1310  0.1289
11622PW      WP39801   4.333   0.272   0.591 -0.5762  0.2582 -0.2935
11622PW      WM39802   4.250   0.085   0.455 -0.0262  0.1477  0.2836
11623PW       W39803   9.872   0.391  10.315 -0.7928 -0.0586  0.0278
11623PW      WP39804   9.828   0.517  10.273  0.1361  0.3445  0.1495
11623PW      WM39805   9.886   0.267  10.378 -0.3191 -0.1768 -0.2860
11624PW       W39806   8.317   2.939   2.698 -0.1378 -0.1802  0.3160
11624PW      WP39807   8.278   2.805   2.705  0.5113 -0.3791  0.4182
11624PW      WM39808   8.385   3.016   2.793  0.5500 -0.1821 -0.1428
11625PW       W39809   5.753   2.190  10.887  0.5971 -0.4400 -0.0244
11625PW      WP39810   5.679   2.274  10.970  0.2238 -0.2471 -0.5240
11625PW      WM39811   5.768   2.126  10.763  0.4891 -0.0635 -0.2392
11626PW       W39812  11.511   6.042   3.984 -0.0510 -0.6666 -0.0741
11626PW      WP39813  11.629   5.977   4.024  0.2398  0.2261  0.7067
11626PW      WM39814  11.472   5.927   3.915 -0.1656 -0.4047 -0.4553
11627PW       W39815   5.469   1.455  10.660 -0.0085  0.1075  0.0562
11627PW      WP39816   5.531   1.437  10.784 -0.2711  0.2297  0.2121
11627PW      WM39817   5.330   1.437  10.669  0.0158 -0.0940  0.0474
11628PW       W39818   2.173   0.494   9.692  0.2133 -0.0485 -0.3066
11628PW      WP39819   2.066   0.424   9.634  0.1454 -0.3785  0.1910
11628PW      WM39820   2.155   0.631   9.716  0.0789 -0.1195  0.0192
11629PW       W39821   2.102  12.054   3.620  0.3931 -0.0898 -0.0894
11629PW      WP39822   2.168  12.065   3.743 -0.3211 -0.0203  0.3149
11629PW      WM39823   2.045  12.027   3.745  0.4011  0.0890 -0.0460
11630PW       W39824   0.989   8.032  10.005  0.2097 -0.4666  0.4349
11630PW      WP39825   0.931   8.122  10.095  0.1712  0.0286 -0.0559
11630PW      WM39826   0.919   7.912   9.987 -0.5694  0.0410 -0.3747
11631PW       W39827   4.913   1.647   4.817  0.1463  0.0919 -0.0564
11631PW      WP39828   4.844   1.572   4.721 -0.0664  0.3371 -0.1014
11631PW      WM39829   4.933   1.663   4.955  0.1511  0.0557 -0.0531
11632PW       W39830   0.125   2.243   9.787  0.2219  0.7221 -0.2537
11632PW      WP39831   0.229   2.205   9.701  0.1185  0.0410 -0.1074
11632PW      WM39832   0.014   2.222   9.869  0.2752  0.1367 -0.3091
11633PW       W39833   6.426   1.946   2.980 -0.2455  0.3438  0.2235
11633PW      WP39834   6.382   1.814   3.001  0.3269  0.0930 -0.0551
11633PW      WM39835   6.319   1.875   3.037 -0.3250  0.3231  0.0540
11634PW       W39836   8.480   7.279   0.735  0.0652 -0.0956 -0.3132
11634PW      WP39837   8.453   7.414   0.709  0.0929 -0.0470 -0.0924
11634PW      WM39838   8.523   7.342   0.852 -0.1336  0.4710 -0.5268
11635PW       W39839   2.278   0.761   0.137 -0.3484  0.3266 -0.1671
11635PW      WP39840   2.162   0.752   0.059 -0.3632 -0.2421 -0.0988
11635PW      WM39841   2.356   0.868   0.091  0.0956  0.0601 -0.0652
11636PW       W39842   3.664   7.643   9.262 -0.2239 -0.4968  0.6927
11636PW      WP39843   3.728   7.758   9.311  0.0562 -0.2323 -0.1872
11636PW      WM39844   3.607   7.588   9.146 -0.4722  0.6071  0.2251
11637PW       W39845   3.524   7.287   1.608 -0.0014 -0.1814  0.3506
11637PW      WP39846   3.629   7.246   1.525 -0.1365 -0.3545  0.2628
11637PW      WM39847   3.424   7.345   1.687  0.2196  0.4265  0.2070
11638PW       W39848   8.764  11.199   9.325  0.3052  0.1010  0.0948
11638PW      WP39849   8.627  11.171   9.324  0.3171  0.0329  0.2495
11638PW      WM39850   8.827  11.283   9.233  0.1604 -0.1909 -0.2796
11639PW       W39851   4.961   4.726   9.002 -0.2732 -0.5862 -0.0156
11639PW      WP39852   4.902   4.706   8.876 -0.4726 -0.3874  0.0420
11639PW      WM39853   4.894   4.747   9.123  0.0755 -0.6348  0.1917
11640PW       W39854   4.018   1.732  11.705  0.2200 -0.2272  0.1548
11640PW      WP39855   4.088   1.850  11.681 -0.0161 -0.0588  0.2702
11640PW      WM39856   3.883   1.714  11.673  0.1931  0.6179 -0.3446
11641PW       W39857   6.479   6.831   4.070  0.1136 -0.1896 -0.2767
11641PW      WP39858   6.587   6.849   3.982 -0.1662 -0.1638 -0.6259
11641PW      WM39859   6.394   6.750   3.993 -0.2554 -0.0111 -0.0691
11642PW       W39860   3.968  11.802  12.207  0.0441  0.0870 -0.6238
11642PW      WP39861   3.943  11.693  12.122 -0.2858 -0.2842 -0.0809
11642PW      WM39862   3.991  11.937  12.238 -0.2295 -0.0258  0.1892
11643PW       W39863   0.605   5.849   8.374  0.4332  0.1578  0.0443
11643PW      WP39864   0.490   5.798   8.314  0.3627  0.2557  0.0934
11643PW      WM39865   0.618   5.977   8.319  0.6837 -0.0374 -0.3748
11644PW       W39866   7.823   0.148  11.512 -0.1780 -0.1053 -0.1644
11644PW      WP39867   7.944   0.154  11.442 -0.0713  0.4541  0.0402
11644PW      WM39868   7.717   0.207  11.442 -0.1318 -0.0329 -0.1747
11645PW       W39869   9.349  11.232   4.266  0.1588 -0.1753  0.6450
11645PW      WP39870   9.305  11.348   4.332 -0.1531  0.2465 -0.2195
11645PW      WM39871   9.474  11.176   4.238  0.0473 -0.0973 -0.1063
11646PW       W39872   7.146  10.986   3.964  0.1967 -0.0952  0.0221
11646PW      WP39873   7.218  10.868   3.984  0.4685  0.0500 -0.0868
11646PW      WM39874   7.042  11.056   4.026  0.0981 -0.2576  0.0438
11647PW       W39875   0.183   7.237   0.888 -0.3480  0.0905 -0.2620
11647PW      WP39876   0.075   7.188   0.963 -0.0831  0.1540  0.1791
11647PW      WM39877   0.289   7.286   0.812  0.0517 -0.0107  0.2033
11648PW       W39878   5.522   1.010   4.805  0.4393  0.2467  0.2294
11648PW      WP39879   5.416   1.027   4.895  0.2414  0.1854  0.0117
11648PW      WM39880   5.508   0.871   4.795 -0.1910  0.2964  0.2061
11649PW       W39881   4.345   8.925  10.820 -0.1268 -0.2421  0.0217
11649PW      WP39882   4.447   9.018  10.843 -0.3350 -0.0236  0.0786
11649PW      WM39883   4.420   8.822  10.763  0.1689 -0.0791  0.1031
11650PW       W39884   0.123   8.379  10.685  0.0773  0.2350 -0.0102
11650PW      WP39885   0.106   8.241  10.674 -0.4921  0.2682  0.2583
11650PW      WM39886   0.142   8.453  10.567  0.1064  0.2711  0.0171
11651PW       W39887   5.345   1.839   4.540 -0.7366  0.3987  0.2186
11651PW      WP39888   5.392   1.748   4.636  0.7123  0.3643 -0.3950
11651PW      WM39889   5.282   1.769   4.436 -0.2231  0.2810 -0.0343
11652PW       W39890   9.579  10.704  10.386 -0.1236 -0.2730  0.0655
11652PW      WP39891   9.637  10.826  10.351 -0.1484 -0.0840  0.6347
11652PW      WM39892   9.634  10.755  10.505 -0.1122 -0.0475 -0.0344
11653PW       W39893   3.342  10.335   3.613  0.2956 -0.2184 -0.3128
11653PW      WP39894   3.397  10.462   3.636  0.1571 -0.2107 -0.0110
11653PW      WM39895   3.469  10.280   3.632  0.3387 -0.0717 -0.1693
11654PW       W39896   6.955   4.950  12.100  0.4413 -0.3536 -0.3660
11654PW      WP39897   7.015   5.075  12.081  0.0907 -0.0470  0.3460
11654PW      WM39898   7.092   4.963  12.077  0.4697  0.0137 -0.0381
11655PW       W39899  10.925   8.055  11.046  0.0474 -0.1126 -0.0937
11655PW      WP39900  10.999   8.031  11.163  0.0743  0.1383 -0.0565
11655PW      WM39901  11.015   8.120  10.961 -0.2326  0.4088 -0.0097
11656PW       W39902   2.931   9.624   9.441  0.4658  0.0717 -0.2596
11656PW      WP39903   2.880   9.549   9.547  0.1765  0.2848 -0.2406
11656PW      WM39904   3.039   9.711   9.458  0.5103 -0.0266 -0.0211
11657PW       W39905   4.376   4.140   0.002 -0.0923  0.2726 -0.0591
11657PW      WP39906   4.481   4.189  -0.077 -0.0577 -0.0867 -0.2509
11657PW      WM39907   4.295   4.158   0.115 -0.1666 -0.3658  0.0102
11658PW       W39908   6.549   0.363  10.057 -0.1288 -0.2789 -0.1228
11658PW      WP39909   6.688   0.352  10.040 -0.1083  0.0647 -0.2261
11658PW      WM39910   6.441   0.408   9.980  0.2721  0.7226 -0.1759
11659PW       W39911   6.799   0.009  10.651 -0.1702 -0.3156 -0.1682
11659PW      WP39912   6.676   0.004  10.585 -0.1844 -0.2623 -0.1457
11659PW      WM39913   6.841   0.051  10.524  0.1120  0.1244  0.0597
11660PW       W39914   7.006   3.126  12.167 -0.4278 -0.1068  0.5746
11660PW      WP39915   7.116   3.071  12.234  0.4130 -0.1451 -0.6666
11660PW      WM39916   6.968   2.995  12.139  0.0181 -0.1565  0.1254
11661PW       W39917   1.267   3.248  13.293  0.7193  0.1609  0.0704
11661PW      WP39918   1.347   3.155  13.225 -0.2429 -0.5248 -0.2409
11661PW      WM39919   1.255   3.335  13.184 -0.0328 -0.0861 -0.0749
11662PW       W39920  10.573   6.527   0.093 -0.1996 -0.5145  0.1200
11662PW      WP39921  10.516   6.590  -0.018  0.1982  0.2471  0.3170
11662PW      WM39922  10.692   6.453   0.093 -0.0530 -0.2907  0.3995
11663PW       W39923   1.757   5.561   2.959 -0.1400  0.3378 -0.3603
11663PW      WP39924   1.663   5.512   3.051  0.1452  0.4662  0.0160
11663PW      WM39925   1.707   5.676   3.022 -0.1328  0.1001  0.0985
11664PW       W39926   1.330   5.162  11.438  0.1642 -0.0150  0.2988
11664PW      WP39927   1.412   5.122  11.332 -0.0228  0.0785  0.1140
11664PW      WM39928   1.216   5.224  11.383  0.6262  0.2937 -0.3919
11665PW       W39929   3.722   9.844   3.250  0.0082  0.2771 -0.2033
11665PW      WP39930   3.719   9.866   3.111 -0.2653 -0.0473 -0.2550
11665PW      WM39931   3.804   9.768   3.334 -0.0314  0.1835 -0.2491
11666PW       W39932   1.319   7.118   2.294 -0.2823  0.4478 -0.3380
11666PW      WP39933   1.208   7.114   2.380  0.0378 -0.6246  0.1024
11666PW      WM39934   1.289   7.052   2.174  0.1829 -0.2696 -0.0897
11667PW       W39935   2.446   5.150   1.736  0.3584 -0.3411 -0.2048
11667PW      WP39936   2.527   5.078   1.825 -0.0876 -0.1483  0.3926
11667PW      WM39937   2.501   5.143   1.608 -0.3303 -0.3323 -0.5201
11668PW       W39938   8.685   9.126  11.778 -0.0848  0.1421  0.2378
11668PW      WP39939   8.815   9.089  11.815  0.0973 -0.1232 -0.5598
11668PW      WM39940   8.752   9.175  11.665  0.0390  0.2498  0.3573
11669PW       W39941  10.456   4.633  10.302  0.0449  0.4326  0.2132
11669PW      WP39942  10.368   4.538  10.249  0.1883  0.1461  0.4732
11669PW      WM39943  10.402   4.740  10.230  0.3190  0.2613 -0.2709
11670PW       W39944   4.732  11.115   8.692 -0.0248 -0.6451  0.0359
11670PW      WP39945   4.611  11.102   8.622 -0.2760  0.6032  0.1234
11670PW      WM39946   4.806  11.222   8.639 -1.0945  0.3630  0.3569
11671PW       W39947   9.508   7.159   0.161  0.4029 -0.0074 -0.1030
11671PW      WP39948   9.382   7.112   0.124  0.1692  0.4198  0.1134
11671PW      WM39949   9.585   7.060   0.100  0.1888 -0.1864 -0.0865
11672PW       W39950   6.070  10.605  10.335 -0.0772  0.3751 -0.0928
11672PW      WP39951   6.174  10.632  10.424  0.0839  0.3845 -0.2798
11672PW      WM39952   6.018  10.655  10.215  0.4044  0.5056 -0.2575
11673PW       W39953   9.242   6.037  10.392  0.2063 -0.1442  0.2682
11673PW      WP39954   9.213   6.173  10.405 -0.5704 -0.2794  0.1598
11673PW      WM39955   9.154   6.017  10.499 -0.3174 -0.0145 -0.1190
11674PW       W39956  11.434   5.561   1.484  0.0095  0.1007  0.0562
11674PW      WP39957  11.420   5.532   1.348 -0.1996  0.0688  0.0824
11674PW      WM39958  11.358   5.502   1.586  0.2262 -0.2040  0.0478
11675PW       W39959   2.191   3.740  12.397 -0.1411 -0.1457  0.0390
11675PW      WP39960   2.329   3.752  12.374 -0.1370 -0.1015  0.0855
11675PW      WM39961   2.121   3.619  12.389 -0.1967 -0.1091 -0.0335
11676PW       W39962  11.756   8.272  10.524 -0.4871  0.4674 -0.5510
11676PW      WP39963  11.634   8.339  10.537 -0.4967  0.3390  0.4420
11676PW      WM39964  11.663   8.215  10.612  0.1055  0.2207 -0.0413
11677PW       W39965   5.571  10.853   0.160 -0.3459  0.5219  0.0683
11677PW      WP39966   5.525  10.792   0.278  0.3035 -0.2723 -0.0436
11677PW      WM39967   5.633  10.872   0.036 -0.0110  0.0394  0.1483
11678PW       W39968  10.996  11.883  11.330  0.2300  0.2867  0.1185
11678PW      WP39969  11.078  11.915  11.222 -0.0634  0.4703 -0.0580
11678PW      WM39970  10.898  11.930  11.420  0.0535 -0.0877  0.1330
11679PW       W39971   0.607   4.136   9.098 -0.1905 -0.2181  0.1137
11679PW      WP39972   0.653   4.159   8.968  0.0791 -0.5400  0.1477
11679PW      WM39973   0.702   4.215   9.033 -0.0284  0.0518  0.6544
11680PW       W39974   0.226   0.816  11.022  0.0285 -0.0908  0.0455
11680PW      WP39975   0.090   0.791  11.001  0.0386 -0.2606  0.1675
11680PW      WM39976   0.262   0.845  10.889  0.5267 -0.4938  0.0770
11681PW       W39977   7.345   9.336  11.722  0.3188  0.2029 -0.1027
11681PW      WP39978   7.433   9.388  11.816  0.3311 -0.1547  0.0913
11681PW      WM39979   7.239   9.335  11.630 -0.0628 -0.0005  0.3186
11682PW       W39980  11.277   9.506  12.030 -0.0889  0.0139 -0.1930
11682PW      WP39981  11.335   9.603  12.113 -0.4459 -0.0739  0.1702
11682PW      WM39982  11.347   9.419  11.945  0.2935  0.0221  0.0998
11683PW       W39983   1.254   5.289  11.896  0.0592 -0.4572  0.4693
11683PW      WP39984   1.371   5.267  11.969  0.5836 -0.2981 -0.2793
11683PW      WM39985   1.180   5.175  11.930 -0.2684 -0.3352  0.1943
11684PW       W39986   8.188   5.702   1.334  0.1719  0.6926  0.0810
11684PW      WP39987   8.118   5.817   1.293 -0.0545  0.3531 -0.5378
11684PW      WM39988   8.289   5.684   1.430  0.1427 -0.3771 -0.0333
11685PW       W39989   9.816   6.799  11.779  0.0512  0.0583  0.1068
11685PW      WP39990   9.841   6.851  11.651  0.1495  0.1310  0.1553
11685PW      WM39991   9.824   6.684  11.699  0.4006  0.0286  0.1757
11686PW       W39992   8.538  11.435   3.826 -0.2084 -0.2850 -0.0413
11686PW      WP39993   8.494  11.371   3.709 -0.2247  0.2888 -0.3654
11686PW      WM39994   8.590  11.351   3.925  0.2118 -0.0049 -0.0165
11687PW       W39995   9.704   1.183   3.593 -0.1461 -0.1840  0.2768
11687PW      WP39996   9.757   1.118   3.481 -0.8031 -0.1092 -0.1022
11687PW      WM39997   9.718   1.043   3.594  0.0355 -0.1684  0.0840
11688PW       W39998   9.218   9.993   1.729  0.5006 -0.0828 -0.0049
11688PW      WP39999   9.208  10.131   1.708 -0.3012 -0.0617  0.3367
11688PW      WM40000   9.270  10.041   1.850 -0.3288  0.0589  0.3342
11689PW       W40001   4.817   0.156  11.703 -0.0582 -0.1247 -0.4048
11689PW      WP40002   4.687   0.157  11.755  0.1058  0.2005  0.0222
11689PW      WM40003   4.700   0.081  11.683 -0.0859 -0.1483 -0.1626
11690PW       W40004   7.303   1.082   0.172  0.3214 -0.1765  0.3941
11690PW      WP40005   7.418   1.160   0.195  0.1425  0.2647 -0.1037
11690PW      WM40006   7.293   1.184   0.267 -0.0385  0.3628 -0.1849
11691PW       W40007   7.952   5.143  13.119 -0.0955 -0.0445 -0.2393
11691PW      WP40008   8.015   5.028  13.168  0.3211 -0.0325 -0.7001
11691PW      WM40009   7.971   5.098  12.987  0.0084 -0.2043 -0.1712
11692PW       W40010   1.487   6.333   9.953 -0.3685  0.1952  0.4209
11692PW      WP40011   1.409   6.217   9.967  0.1335 -0.3365 -0.5985
11692PW      WM40012   1.577   6.436   9.926 -0.2291 -0.0293 -0.0293
11693PW       W40013   0.011   3.110   8.879 -0.0099  0.5155 -0.3681
11693PW      WP40014  -0.126   3.136   8.890 -0.2815 -0.5741 -0.5406
11693PW      WM40015   0.137   3.052   8.896  0.0216  0.6285 -0.1947
11694PW       W40016  11.367  12.128   3.818  0.4630  0.1830  0.0935
11694PW      WP40017  11.400  12.186   3.942 -0.1478  0.1263  0.2956
11694PW      WM40018  11.346  12.024   3.909 -0.0491  0.3177  0.1451
11695PW       W40019   7.088  11.708   9.190  0.1315  0.0096  0.4401
11695PW      WP40020   7.090  11.829   9.119  0.4767 -0.2178  0.0357
11695PW      WM40021   6.994  11.801   9.143  0.1776 -0.1962 -0.0981
11696PW       W40022   9.421   6.484   9.463 -0.2230  0.0865  0.5571
11696PW      WP40023   9.448   6.357   9.515 -0.0293  0.1582  0.6337
11696PW      WM40024   9.392   6.561   9.576  0.1323  0.0544  0.6760
11697PW       W40025   9.083   4.900  12.073  0.3414  0.0879 -0.5673
11697PW      WP40026   9.116   5.034  12.094 -0.1298  0.1304  0.0270
11697PW      WM40027   8.962   4.873  12.008  0.0673 -0.3017  0.0556
11698PW       W40028   0.159   3.574   9.017  0.2591  0.1428  0.1231
11698PW      WP40029   0.077   3.567   8.904 -0.0870  0.1013  0.3684
11698PW      WM40030   0.249   3.468   9.025  0.3404  0.2123  0.1452
11699PW       W40031   4.213   5.531  11.866  0.2823 -0.1820  0.0619
11699PW      WP40032   4.118   5.484  11.775 -0.0299  0.1215  0.2168
11699PW      WM40033   4.221   5.656  11.930 -0.1542 -0.0006 -0.2198
11700PW       W40034   2.933   3.925   3.248  0.1978 -0.5932  0.1044
11700PW      WP40035   2.955   3.867   3.123 -0.4155  0.2394 -0.4427
11700PW      WM40036   2.927   3.876   3.379 -0.0536 -0.4685  0.1424
11701PW       W40037   1.143   5.826   3.699  0.1907  0.0563 -0.1243
11701PW      WP40038   1.091   5.792   3.573 -0.2524  0.2929 -0.0165
11701PW      WM40039   1.106   5.954   3.654  0.2037  0.1003 -0.0119
11702PW       W40040  10.451  11.882  11.582 -0.3056 -0.2438 -0.2805
11702PW      WP40041  10.516  11.890  11.459 -0.0469  0.1802 -0.1261
11702PW      WM40042  10.501  11.983  11.666 -0.7675 -0.3033  0.0908
11703PW       W40043   1.228   8.948   1.906 -0.1411  0.1968  0.5789
11703PW      WP40044   1.244   9.036   1.798 -0.7230 -0.5241 -0.1563
11703PW      WM40045   1.295   8.825   1.910  0.0357  0.2511 -0.1530
11704PW       W40046   9.031   8.259   3.788  0.2813 -0.1620  0.2281
11704PW      WP40047   8.929   8.338   3.844  0.1777 -0.1947  0.0887
11704PW      WM40048   9.049   8.226   3.922 -0.1055 -0.1013  0.3017
11705PW       W40049   9.099   5.106  10.281 -0.0661  0.3805  0.1481
11705PW      WP40050   9.143   4.990  10.345  0.2079  0.1157 -0.4800
11705PW      WM40051   9.218   5.174  10.253  0.0628 -0.0450 -0.4206
11706PW       W40052   0.803   2.318  13.155 -0.0635  0.4275  0.3187
11706PW      WP40053   0.900   2.282  13.250 -0.2641  0.1716  0.4335
11706PW      WM40054   0.670   2.325  13.114  0.0399  0.1954 -0.0766
11707PW       W40055   0.510   9.908  13.187  0.1168  0.0137  0.1737
11707PW      WP40056   0.419   9.924  13.292  0.2213 -0.1531  0.2928
11707PW      WM40057   0.617   9.986  13.234  0.2123 -0.2559  0.4189
11708PW       W40058   2.384   8.830  12.821 -0.2960 -0.2358 -0.2123
11708PW      WP40059   2.407   8.967  12.804 -0.4716 -0.1651  0.0711
11708PW      WM40060   2.384   8.723  12.730 -0.1577 -0.3041 -0.1335
11709PW       W40061  10.953   5.255   9.399  0.1229  0.0763 -0.0431
11709PW      WP40062  10.939   5.304   9.529  0.3931  0.7803 -0.2556
11709PW      WM40063  11.028   5.373   9.401 -0.2005  0.2865  0.2500
11710PW       W40064   4.003  10.565   0.642  0.2383  0.1599  0.1526
11710PW      WP40065   4.112  10.580   0.555 -0.0203 -0.1449 -0.2435
11710PW      WM40066   3.903  10.655   0.605  0.1502  0.0631  0.1534
11711PW       W40067   9.393  11.048  12.625 -0.0172  0.4073 -0.1941
11711PW      WP40068   9.275  11.010  12.691  0.3038 -0.1484  0.1004
11711PW      WM40069   9.382  11.060  12.486 -0.2636  0.1688 -0.1988
11712PW       W40070  10.914   5.417   2.713 -0.1316  0.0135 -0.1164
11712PW      WP40071  10.866   5.429   2.844 -0.6435 -0.0422 -0.2862
11712PW      WM40072  10.930   5.388   2.577  0.3862  0.2534 -0.1184
11713PW       W40073   9.932   7.540   1.307  0.0765  0.2214  0.1573
11713PW      WP40074   9.916   7.668   1.252 -0.1325  0.0948 -0.0904
11713PW      WM40075  10.064   7.584   1.319 -0.0243  0.5457  0.1302
11714PW       W40076   5.184   8.212   1.886 -0.4925 -0.2583 -0.2654
11714PW      WP40077   5.318   8.181   1.910 -0.4548  0.2251  0.2595
11714PW      WM40078   5.123   8.315   1.958  0.1376  0.0295 -0.1124
11715PW       W40079  11.204  10.525  12.443 -0.0319  0.7440 -0.2368
11715PW      WP40080  11.339  10.494  12.460 -0.0274  0.4271 -0.7501
11715PW      WM40081  11.140  10.525  12.567  0.4217 -0.0795  0.0333
11716PW       W40082   9.794   8.048   9.477 -0.0934  0.1400 -0.2805
11716PW      WP40083   9.700   8.072   9.579 -0.3523 -0.2420 -0.4204
11716PW      WM40084   9.825   7.913   9.494 -0.2811  0.1106 -0.1602
11717PW       W40085   3.121  10.455   5.395  0.1161  0.1734  0.1920
11717PW      WP40086   3.214  10.356   5.361 -0.1546 -0.0740  0.1546
11717PW      WM40087   3.177  10.576   5.352  0.5424 -0.1366 -0.1645
11718PW       W40088   3.343   0.241  10.043 -0.2727  0.4519  0.1631
11718PW      WP40089   3.438   0.337  10.081 -0.2496  0.4330  0.1539
11718PW      WM40090   3.281   0.263  10.166 -0.0265 -0.0375  0.3886
11719PW       W40091   3.400  10.755   2.793 -0.2299 -0.1937 -0.1017
11719PW      WP40092   3.392  10.725   2.930  0.4219  0.7890  0.2002
11719PW      WM40093   3.393  10.627   2.851  0.3009  0.0611  0.5915
11720PW       W40094   0.478   8.332   3.465  0.2499 -0.3265  0.2346
11720PW      WP40095   0.487   8.309   3.328 -0.0761  0.5828  0.0191
11720PW      WM40096   0.545   8.210   3.473  0.2640 -0.3802 -0.4536
11721PW       W40097   5.753   1.507   9.214 -0.2271 -0.6478  0.1210
11721PW      WP40098   5.810   1.382   9.242  0.2079 -0.3691  0.5494
11721PW      WM40099   5.658   1.570   9.133  0.0973 -0.0599  0.1685
11722PW       W40100  10.508   3.099   9.326  0.0666  0.1111  0.5771
11722PW      WP40101  10.580   3.192   9.251 -0.0288 -0.1049  0.2025
11722PW      WM40102  10.450   2.975   9.295 -0.0081  0.2678  0.0370
11723PW       W40103   0.150   1.298   0.480  0.0491  0.0003 -0.1419
11723PW      WP40104   0.101   1.406   0.407 -0.5731  0.0005  0.2391
11723PW      WM40105   0.099   1.226   0.371 -0.2269  0.3311 -0.2362
11724PW       W40106   8.820   8.647   4.298 -0.2378  0.0487 -0.4689
11724PW      WP40107   8.803   8.700   4.169  0.3526  0.3529 -0.4408
11724PW      WM40108   8.702   8.586   4.340 -0.1527  0.2128  0.0422
11725PW       W40109   8.783   3.536   2.474 -0.0910 -0.2007 -0.3037
11725PW      WP40110   8.857   3.633   2.405 -0.2794  0.0724 -0.1288
11725PW      WM40111   8.828   3.546   2.606 -0.0450 -0.9036 -0.2454
11726PW       W40112   9.249   0.971  13.182 -0.0167  0.1040  0.1069
11726PW      WP40113   9.260   0.985  13.043 -0.4530 -0.4018  0.0047
11726PW      WM40114   9.296   0.891  13.286  0.3063  0.1164 -0.0256
11727PW       W40115  10.631   2.002   9.614  0.1936 -0.2978 -0.3454
11727PW      WP40116  10.770   2.017   9.623  0.1643 -0.1761 -0.0467
11727PW      WM40117  10.646   2.141   9.613  0.0775 -0.2597  0.4062
11728PW       W40118  10.002   4.783  12.066 -0.5411  0.4738  0.0869
11728PW      WP40119   9.886   4.715  12.026 -0.3785  0.4673 -0.4156
11728PW      WM40120  10.113   4.780  12.152 -0.7303 -0.0578  0.3318
11729PW       W40121   8.277   3.413   2.579 -0.1797  0.1656 -0.2979
11729PW      WP40122   8.313   3.399   2.445  0.8603  0.0497 -0.0470
11729PW      WM40123   8.158   3.486   2.561 -0.1367  0.3569  0.1228
11730PW       W40124  11.003   2.735  13.071  0.4661  0.0020 -0.3710
11730PW      WP40125  10.892   2.666  13.020  0.3930  0.2565 -0.5651
11730PW      WM40126  11.071   2.806  12.972  0.4327  0.2883 -0.1932
11731PW       W40127   8.185   2.814  11.004  0.1181 -0.1711  0.1958
11731PW      WP40128   8.148   2.706  10.923  0.2703 -0.2928  0.2860
11731PW      WM40129   8.150   2.879  11.122  0.4361  0.3708  0.0116
11732PW       W40130   3.652   7.584  12.475  0.0244  0.0246 -0.4651
11732PW      WP40131   3.524   7.616  12.519 -0.0494 -0.5713 -0.1965
11732PW      WM40132   3.785   7.543  12.461  0.0976 -0.0949  0.3245
11733PW       W40133   4.183   2.093  12.357  0.2660 -0.3191 -0.3549
11733PW      WP40134   4.161   1.986  12.445  0.0967 -0.1114 -0.1374
11733PW      WM40135   4.105   2.135  12.249 -0.3994  0.0823  0.2372
11734PW       W40136   4.211   9.529   1.839  0.1922  0.2549  0.2402
11734PW      WP40137   4.168   9.659   1.811 -0.3035  0.0260 -0.1333
11734PW      WM40138   4.121   9.456   1.917 -0.0742  0.2417 -0.0706
11735PW       W40139   3.610   2.730   9.915  0.1702 -0.3450 -0.1337
11735PW      WP40140   3.719   2.674   9.982  0.2684 -0.1955 -0.1678
11735PW      WM40141   3.548   2.708   9.791 -0.0396 -0.2720 -0.0451
11736PW       W40142  10.966   0.684   0.681 -0.3039  0.3832 -0.7155
11736PW      WP40143  11.002   0.548   0.671 -0.1108  0.3649  0.0042
11736PW      WM40144  11.030   0.798   0.730  0.1685 -0.2079  0.1672
11737PW       W40145  10.814   5.679  10.235 -0.3336  0.0810 -0.0379
11737PW      WP40146  10.712   5.638  10.322 -0.3275  0.4343  0.1457
11737PW      WM40147  10.950   5.709  10.220 -0.2877 -0.1574 -0.1176
11738PW       W40148   1.833   2.519   4.930  0.2277  0.2591 -0.0921
11738PW      WP40149   1.765   2.409   4.982  0.2812  0.1599 -0.2286
11738PW      WM40150   1.898   2.495   4.808  0.1186 -0.6864 -0.0004
11739PW       W40151   1.634   3.133  11.222  0.2595  0.3404 -0.1144
11739PW      WP40152   1.530   3.042  11.196  0.5484 -0.1279  0.2830
11739PW      WM40153   1.640   3.132  11.361  0.2957 -0.0389 -0.1137
11740PW       W40154   3.497   4.870  11.707  0.1449 -0.4358 -0.1947
11740PW      WP40155   3.586   4.923  11.803  0.2923  0.3085 -0.6960
11740PW      WM40156   3.365   4.905  11.680  0.1128  0.1584  0.5469
11741PW       W40157   3.818   7.809   4.329  0.0201  0.0604  0.3181
11741PW      WP40158   3.708   7.725   4.350  0.1463 -0.1839  0.0421
11741PW      WM40159   3.772   7.907   4.241  0.0288 -0.6735 -0.5879
11742PW       W40160   2.267   3.052  12.363  0.0859 -0.0332 -0.6132
11742PW      WP40161   2.242   2.923  12.411  0.0614 -0.0018 -0.5405
11742PW      WM40162   2.205   3.105  12.477  0.6112 -0.7551  0.0576
11743PW       W40163   7.137   3.755  12.290  0.4532  0.1389  0.5399
11743PW      WP40164   7.171   3.671  12.182  0.0829  0.3138  0.2758
11743PW      WM40165   7.077   3.840  12.383 -0.0982  0.1150  0.2268
11744PW       W40166   9.500  11.565   0.040  0.0337 -0.1415  0.0763
11744PW      WP40167   9.432  11.468  -0.035 -0.0523 -0.3030  0.3560
11744PW      WM40168   9.462  11.592   0.172 -0.1459  0.3500 -0.0624
11745PW       W40169   3.327   3.576   2.097 -0.5284 -0.0119  0.0402
11745PW      WP40170   3.353   3.608   1.963 -0.2235 -0.3593  0.0098
11745PW      WM40171   3.272   3.632   2.212  0.2330 -0.2406  0.5510
11746PW       W40172   2.736   8.596  13.062  0.2415 -0.0703  0.5135
11746PW      WP40173   2.631   8.504  13.049  0.3785 -0.2125  0.3838
11746PW      WM40174   2.658   8.630  13.173 -0.3574  0.0238  0.0865
11747PW       W40175   7.883   0.318   4.455 -0.5162  0.0875 -0.0909
11747PW      WP40176   7.878   0.365   4.323  0.3190  0.4474 -0.0281
11747PW      WM40177   7.987   0.412   4.453 -0.2528 -0.1571  0.5502
11748PW       W40178  11.578   0.682  12.323 -0.0832 -0.1960 -0.0038
11748PW      WP40179  11.531   0.561  12.270 -0.0623 -0.0424 -0.3909
11748PW      WM40180  11.549   0.719  12.191 -0.3391  0.5842  0.2440
11749PW       W40181   4.673   0.567   0.520  0.2156 -0.3181  0.2491
11749PW      WP40182   4.762   0.676   0.519  0.3500 -0.4245  0.3405
11749PW      WM40183   4.673   0.428   0.504  0.1543 -0.3095  0.1721
11750PW       W40184   0.340   0.820   9.185 -0.1228  0.1341  0.0958
11750PW      WP40185   0.223   0.749   9.155  0.0078 -0.1642  0.2617
11750PW      WM40186   0.262   0.930   9.222 -0.3993  0.1452 -0.4655
11751PW       W40187   5.180   7.985  10.581 -0.0785  0.1129 -0.1494
11751PW      WP40188   5.131   8.007  10.711  0.5690  0.3893  0.0686
11751PW      WM40189   5.202   7.852  10.622  0.1103  0.2556  0.2465
11752PW       W40190   6.369  11.971   1.045  0.1504 -0.2411  0.0703
11752PW      WP40191   6.389  11.859   0.964  0.1956 -0.2255  0.0597
11752PW      WM40192   6.365  12.079   0.956 -0.0848  0.1241  0.5022
11753PW       W40193   1.527   1.753   3.959  0.1992  0.1180 -0.0006
11753PW      WP40194   1.589   1.629   3.974 -0.1293 -0.0294  0.1939
11753PW      WM40195   1.410   1.822   3.923  0.4474  0.5601 -0.0012
11754PW       W40196   0.095   0.709   1.621  0.0486 -0.3443 -0.2889
11754PW      WP40197   0.153   0.725   1.495 -0.1075  0.3632 -0.2928
11754PW      WM40198  -0.041   0.721   1.652  0.0482 -0.1615 -0.3580
11755PW       W40199  10.725   3.734  10.586  0.1185 -0.2941  0.1870
11755PW      WP40200  10.789   3.761  10.708  0.4191  0.2293 -0.0674
11755PW      WM40201  10.620   3.800  10.652  0.4139  0.3303  0.0730
11756PW       W40202  11.142   8.220   0.297  0.1324  0.4595  0.8040
11756PW      WP40203  11.119   8.233   0.160  0.3621 -0.1135  0.6996
11756PW      WM40204  11.029   8.299   0.325 -0.1633  0.1315  0.5729
11757PW       W40205   2.361   9.734   2.345  0.2336  0.0413 -0.0925
11757PW      WP40206   2.488   9.702   2.396  0.1102 -0.2160  0.0674
11757PW      WM40207   2.430   9.625   2.399  0.1660  0.0576  0.0265
11758PW       W40208   3.999  11.628  12.941 -0.1202  0.2688 -0.1051
11758PW      WP40209   3.886  11.647  12.862 -0.2747 -0.0523  0.0304
11758PW      WM40210   4.062  11.529  13.019  0.0129  0.2971 -0.1752
11759PW       W40211   1.866   3.433  10.862 -0.1650 -0.1705  0.0356
11759PW      WP40212   1.889   3.297  10.839 -0.2501 -0.1594 -0.1201
11759PW      WM40213   1.937   3.547  10.824 -0.0798 -0.1738  0.1808
11760PW       W40214   7.519   8.927   9.918  0.4436  0.5505 -0.2316
11760PW      WP40215   7.467   8.929   9.788 -0.1408  0.5066 -0.0125
11760PW      WM40216   7.574   8.910  10.046 -0.0154 -0.2010 -0.1053
11761PW       W40217   2.701   7.725   9.118 -0.1056 -0.0898 -0.3338
11761PW      WP40218   2.710   7.852   9.176 -0.2844 -0.0032 -0.4899
11761PW      WM40219   2.591   7.644   9.149 -0.3340  0.3785  0.1603
11762PW       W40220   3.048   3.367   2.590 -0.0021 -0.2956  0.2112
11762PW      WP40221   2.911   3.375   2.562  0.0870  0.0011 -0.1920
11762PW      WM40222   3.102   3.420   2.708  0.3654 -0.3506  0.0767
11763PW       W40223   0.106   1.630  10.535  0.4161 -0.3698 -0.3161
11763PW      WP40224   0.090   1.561  10.414 -0.4974 -0.3236 -0.2596
11763PW      WM40225   0.166   1.700  10.640 -0.0980 -0.4758  0.0651
11764PW       W40226   0.779   2.470  10.099 -0.5234 -0.4783 -0.2458
11764PW      WP40227   0.702   2.522   9.994  0.0408  0.2176 -0.3462
11764PW      WM40228   0.881   2.376  10.079 -0.0320  0.1121 -0.6631
11765PW       W40229  11.587   9.808   9.820  0.1132 -0.1058 -0.1056
11765PW      WP40230  11.552   9.942   9.797  0.2083 -0.0921 -0.1751
11765PW      WM40231  11.488   9.824   9.918 -0.1225 -0.2496 -0.3156
11766PW       W40232   6.300   0.085   2.963 -0.0078 -0.2643  0.3429
11766PW      WP40233   6.335   0.208   3.020  0.1557 -0.2074  0.1309
11766PW      WM40234   6.422   0.018   2.945 -0.0035 -0.1602 -0.0589
11767PW       W40235   9.031  10.188   9.974  0.4262 -0.0515  0.1548
11767PW      WP40236   8.930  10.097  10.005  0.1613 -0.0172 -0.5190
11767PW      WM40237   9.082  10.294  10.050 -0.1430  0.3601 -0.0017
11768PW       W40238   8.277   4.100   9.906 -0.4159  0.1213  0.0289
11768PW      WP40239   8.325   4.129   9.778  0.0355 -0.1681  0.1182
11768PW      WM40240   8.159   4.036   9.866 -0.4549  0.3855 -0.3039
11769PW       W40241  10.918   2.404   0.301  0.3245  0.5003 -0.0782
11769PW      WP40242  11.030   2.334   0.347 -0.1249 -0.0065  0.3103
11769PW      WM40243  10.851   2.375   0.181 -0.3229 -0.2572  0.4137
11770PW       W40244   9.421   7.897  11.554  0.0354  0.2828 -0.2477
11770PW      WP40245   9.427   7.994  11.655 -0.0479 -0.2610  0.3096
11770PW      WM40246   9.429   7.866  11.418 -0.3618  0.1464 -0.2483
11771PW       W40247   8.057  11.504   8.913  0.1939 -0.2202  0.0087
11771PW      WP40248   8.075  11.642   8.900  0.0625 -0.2138 -0.1089
11771PW      WM40249   8.159  11.416   8.952  0.1708 -0.1889  0.1447
11772PW       W40250   5.194   8.372   9.707  0.2831  0.2413 -0.0601
11772PW      WP40251   5.194   8.311   9.580  0.6849  0.1114 -0.0056
11772PW      WM40252   5.296   8.327   9.623  0.0363  0.1061 -0.2981
11773PW       W40253  11.510   3.709   8.527  0.1179 -0.0420  0.2805
11773PW      WP40254  11.518   3.769   8.653 -0.3126 -0.0828  0.3357
11773PW      WM40255  11.643   3.719   8.571  0.3522 -0.3864 -0.2864
11774PW       W40256  10.091  12.045  11.286  0.2727  0.0411 -0.4149
11774PW      WP40257  10.071  12.051  11.148 -0.2681 -0.0205 -0.3468
11774PW      WM40258  10.203  12.120  11.326  0.1048  0.0599  0.0585
11775PW       W40259   3.972   8.051   9.312 -0.2322 -0.0384  0.0648
11775PW      WP40260   3.991   8.029   9.175  0.5888  0.1537  0.1233
11775PW      WM40261   3.843   8.090   9.274 -0.0356  0.0525 -0.5759
11776PW       W40262   8.095   5.487   2.515 -0.0776  0.2068  0.3490
11776PW      WP40263   8.044   5.586   2.599  0.0449  0.2805  0.3381
11776PW      WM40264   8.176   5.558   2.425 -0.3524  0.1167  0.0186
11777PW       W40265   4.745   7.288   1.002  0.0139  0.3950 -0.3882
11777PW      WP40266   4.812   7.324   1.120 -0.0880 -0.1741 -0.1387
11777PW      WM40267   4.799   7.369   0.902  0.4035  0.0584 -0.4640
11778PW       W40268  11.492   3.092  10.488 -0.1284  0.2255 -0.0798
11778PW      WP40269  11.464   3.103  10.625 -0.2695 -0.3607 -0.0483
11778PW      WM40270  11.621   3.125  10.533 -0.2042  0.2102  0.1564
11779PW       W40271   2.598   1.293  11.412 -0.4174  0.0694  0.6566
11779PW      WP40272   2.671   1.230  11.514 -0.0544  0.0806  0.4142
11779PW      WM40273   2.693   1.360  11.333 -0.4617 -0.0294  0.5187
11780PW       W40274  11.236  11.728   1.657  0.2527 -0.0634 -0.2006
11780PW      WP40275  11.261  11.866   1.657 -0.1122  0.0099  0.0892
11780PW      WM40276  11.172  11.726   1.781  0.4177  0.1483 -0.1075
11781PW       W40277   5.774   5.670   0.776  0.2638  0.0577  0.0164
11781PW      WP40278   5.766   5.628   0.643  0.1977  0.2150 -0.0303
11781PW      WM40279   5.731   5.782   0.704 -0.5244 -0.0508  0.2626
11782PW       W40280   1.209   8.647   8.808 -0.1410  0.1571 -0.2237
11782PW      WP40281   1.339   8.624   8.854 -0.1530  0.1185 -0.2085
11782PW      WM40282   1.243   8.673   8.674  0.6046 -0.5150 -0.2015
11783PW       W40283  10.549   5.195   0.278 -0.4844 -0.4974 -0.1590
11783PW      WP40284  10.414   5.223   0.255 -0.4832 -0.3862 -0.0405
11783PW      WM40285  10.597   5.246   0.400  0.1595 -0.3924 -0.4358
11784PW       W40286   1.516   7.956   0.810 -0.1196  0.2194 -0.0543
11784PW      WP40287   1.619   8.048   0.837  0.1057 -0.0090 -0.1216
11784PW      WM40288   1.525   7.896   0.936 -0.1367  0.2252 -0.0505
11785PW       W40289   3.447   6.711  11.426 -0.2735  0.0700  0.0475
11785PW      WP40290   3.469   6.653  11.551 -0.7080  0.0831  0.1353
11785PW      WM40291   3.478   6.841  11.384 -0.0773  0.2388  0.6579
11786PW       W40292  11.331   5.165   2.740 -0.3599 -0.0473 -0.5210
11786PW      WP40293  11.272   5.089   2.841  0.3032 -0.1080 -0.1518
11786PW      WM40294  11.403   5.255   2.818 -0.2227 -0.4937 -0.1066
11787PW       W40295   4.410   7.922   2.006  0.4149 -0.5134  0.4588
11787PW      WP40296   4.324   8.007   2.077  0.0952  0.0977 -0.5582
11787PW      WM40297   4.524   8.003   2.004  0.0575  0.0204  0.6184
11788PW       W40298   2.152   8.983  11.625 -0.1909  0.0376  0.0179
11788PW      WP40299   2.274   9.048  11.603 -0.0382 -0.0789  0.4814
11788PW      WM40300   2.147   9.086  11.720  0.0723  0.2132 -0.1504
11789PW       W40301   3.762   1.901  10.674 -0.0408 -0.0067  0.0541
11789PW      WP40302   3.675   1.930  10.568 -0.1090 -0.2597  0.0377
11789PW      WM40303   3.682   1.867  10.784  0.4879 -0.2238  0.3889
11790PW       W40304   8.203   6.639  11.839 -0.0870  0.8565 -0.0511
11790PW      WP40305   8.131   6.682  11.727 -0.1948  0.4353 -0.1521
11790PW      WM40306   8.289   6.635  11.949  0.1490 -0.0235 -0.2261
11791PW       W40307   7.621   7.396  10.684 -0.1488 -0.1201 -0.0494
11791PW      WP40308   7.659   7.346  10.559 -0.0125 -0.3684  0.0872
11791PW      WM40309   7.735   7.327  10.727 -0.1612  0.0229  0.2289
11792PW       W40310   8.348   1.809  12.647  0.2024  0.0708  0.2598
11792PW      WP40311   8.394   1.896  12.746  0.4463  0.1390  0.0905
11792PW      WM40312   8.347   1.671  12.670 -0.2196  0.1680  0.9917
11793PW       W40313   9.311   8.077  12.422  0.0383 -0.2826 -0.2249
11793PW      WP40314   9.406   8.055  12.523  0.2619  0.4203 -0.2524
11793PW      WM40315   9.228   8.024  12.323  0.2612 -0.3095 -0.4004
11794PW       W40316   8.820   3.304   5.413  0.1852  0.3538 -0.1009
11794PW      WP40317   8.712   3.326   5.500 -0.1390  0.4717 -0.5197
11794PW      WM40318   8.809   3.263   5.280 -0.0531 -0.0768  0.0438
11795PW       W40319   9.794   9.382   1.769  0.1995  0.1839 -0.0678
11795PW      WP40320   9.692   9.287   1.772  0.2303  0.1450 -0.2321
11795PW      WM40321   9.918   9.441   1.741  0.3475 -0.2095 -0.2758
11796PW       W40322   5.294   3.547   9.875 -0.3302 -0.2041 -0.0358
11796PW      WP40323   5.343   3.461   9.974  0.3025 -0.1476 -0.2745
11796PW      WM40324   5.410   3.591   9.940 -0.6302 -0.0293  0.4055
11797PW       W40325   2.724   8.460   9.244 -0.1288 -0.2592  0.2756
11797PW      WP40326   2.737   8.487   9.381  0.2276  0.2125  0.1603
11797PW      WM40327   2.790   8.338   9.227 -0.0104 -0.1959  0.2777
11798PW       W40328  10.883   0.999   1.646 -0.2671 -0.1380 -0.5173
11798PW      WP40329  10.889   0.919   1.761  0.5863  0.3441 -0.1749
11798PW      WM40330  10.989   1.043   1.566  0.4001  0.0130  0.3641
11799PW       W40331   0.421   2.819   3.464  0.0876  0.3039 -0.0624
11799PW      WP40332   0.382   2.951   3.438 -0.0900  0.1855 -0.4247
11799PW      WM40333   0.416   2.684   3.501 -0.3277  0.2137 -0.4135
11800PW       W40334   3.382   3.537   5.191 -0.0290  0.0282 -0.4495
11800PW      WP40335   3.401   3.518   5.329 -0.1951 -0.2031 -0.4554
11800PW      WM40336   3.386   3.668   5.239  0.0540 -0.1533  0.0821
11801PW       W40337   2.818   2.786   8.624  0.5091 -0.3920 -0.1177
11801PW      WP40338   2.900   2.725   8.719 -0.1305 -0.4696  0.4254
11801PW      WM40339   2.757   2.701   8.532  0.1359 -0.4253  0.1475
11802PW       W40340   5.078   8.106  12.713 -0.4463 -0.2350  0.0918
11802PW      WP40341   5.115   8.155  12.839 -0.3004 -0.0860 -0.0072
11802PW      WM40342   5.119   8.092  12.580 -0.3230  0.1310  0.0854
11803PW       W40343   3.619   2.582   2.483 -0.5055 -0.3492 -0.4018
11803PW      WP40344   3.672   2.674   2.392 -0.1510 -0.3429 -0.1971
11803PW      WM40345   3.646   2.583   2.621 -0.5665  0.4092 -0.3734
11804PW       W40346   0.597   7.500  12.080 -0.5330  0.2425  0.2920
11804PW      WP40347   0.557   7.386  12.151 -0.0423 -0.0736  0.0866
11804PW      WM40348   0.578   7.605  11.990  0.2752  0.3823  0.2455
11805PW       W40349  12.011   3.200   8.302 -0.2181  0.0428  0.0815
11805PW      WP40350  12.094   3.087   8.310  0.0661  0.2615  0.3551
11805PW      WM40351  12.084   3.318   8.315 -0.2126  0.0526 -0.0293
11806PW       W40352   9.153   1.607   4.349 -0.1024  0.0826 -0.3793
11806PW      WP40353   9.081   1.563   4.237 -0.2334 -0.2816 -0.1588
11806PW      WM40354   9.289   1.588   4.324 -0.1911 -0.3692 -0.5636
11807PW       W40355   5.687   2.925  12.678 -0.2404 -0.2145 -0.1941
11807PW      WP40356   5.601   3.035  12.670  0.0840  0.1510  0.6757
11807PW      WM40357   5.594   2.974  12.770  0.2473 -0.0994  0.2686
11808PW       W40358   2.490   9.002   3.009 -0.1234  0.2764  0.0517
11808PW      WP40359   2.528   8.868   2.997 -0.6159  0.1182  0.1488
11808PW      WM40360   2.363   9.034   3.059 -0.0804  0.4192  0.0716
11809PW       W40361   5.687   1.624   4.181 -0.2226  0.2736 -0.4244
11809PW      WP40362   5.643   1.495   4.214 -0.5403  0.4105 -0.2862
11809PW      WM40363   5.681   1.729   4.274 -0.2108  0.0685 -0.1887
11810PW       W40364   7.040   8.542   3.617  0.2038 -0.3311 -0.4157
11810PW      WP40365   7.112   8.475   3.716  0.1907  0.0297 -0.1512
11810PW      WM40366   6.913   8.497   3.582 -0.2609  0.5647 -0.0632
11811PW       W40367   6.247   1.992  10.860  0.2234 -0.1897 -0.0760
11811PW      WP40368   6.372   1.952  10.813  0.1040 -0.7278  0.0391
11811PW      WM40369   6.309   2.115  10.888  0.0880 -0.1413  0.0168
11812PW       W40370   4.812   4.177  11.771  0.0849  0.3084 -0.1611
11812PW      WP40371   4.889   4.183  11.888 -0.0951 -0.2546  0.0026
11812PW      WM40372   4.718   4.258  11.835 -0.2301 -0.0215 -0.1863
11813PW       W40373   2.061   7.259   8.211  0.3035  0.3269  0.1335
11813PW      WP40374   2.080   7.179   8.098 -0.3284  0.0513  0.2071
11813PW      WM40375   2.030   7.226   8.343  0.1372 -0.0466  0.0069
11814PW       W40376   1.242   4.760   1.699 -0.2265 -0.2865  0.3686
11814PW      WP40377   1.364   4.701   1.666 -0.2185  0.2221 -0.7634
11814PW      WM40378   1.309   4.866   1.760 -0.4072 -0.0543  0.1772
11815PW       W40379   4.552  11.895  10.688  0.2588  0.4322  0.3580
11815PW      WP40380   4.661  11.832  10.750  0.5824  0.1635 -0.4148
11815PW      WM40381   4.572  11.821  10.570 -0.2463  0.3660  0.3054
11816PW       W40382   0.725   1.589   4.760 -0.3461 -0.6640  0.1797
11816PW      WP40383   0.664   1.693   4.833  0.3440 -0.1267  0.0440
11816PW      WM40384   0.597   1.539   4.730 -0.4533 -0.5468  0.4220
11817PW       W40385   1.929   5.069   0.715 -0.1377  0.3193  0.0752
11817PW      WP40386   2.036   5.157   0.734  0.4574 -0.3564  0.0777
11817PW      WM40387   1.986   5.068   0.843 -0.6988  0.2624  0.3397
11818PW       W40388  11.902   7.344  13.265  0.0817  0.0617  0.0993
11818PW      WP40389  11.941   7.437  13.362 -0.0704  0.0177  0.2039
11818PW      WM40390  11.956   7.217  13.287  0.2529  0.1673  0.3020
11819PW       W40391   1.684  11.073  10.013 -0.2818  0.0370 -0.0639
11819PW      WP40392   1.732  10.977   9.924 -0.1258  0.2041 -0.1619
11819PW      WM40393   1.726  11.205   9.992 -0.2472  0.0471  0.0576
11820PW       W40394   7.837   3.479   4.250  0.0615 -0.1795  0.1539
11820PW      WP40395   7.909   3.359   4.262  0.1249 -0.1033  0.6045
11820PW      WM40396   7.849   3.380   4.348 -0.2027 -0.1028  0.2699
11821PW       W40397   0.771   5.513   4.383  0.4576  0.2538 -0.1033
11821PW      WP40398   0.735   5.626   4.458 -0.0469 -0.1575  0.3139
11821PW      WM40399   0.821   5.400   4.318 -0.1785 -0.1083 -0.0089
11822PW       W40400   0.334  11.705   2.157 -0.7136  0.1594  0.5143
11822PW      WP40401   0.374  11.596   2.236  0.5567  0.3248  0.2005
11822PW      WM40402   0.283  11.737   2.031  0.2494 -0.2218 -0.0262
11823PW       W40403   4.847  10.235  11.578  0.0636  0.0339  0.3153
11823PW      WP40404   4.801  10.103  11.589  0.0722  0.0493  0.5507
11823PW      WM40405   4.799  10.299  11.692 -0.3795  0.7669 -0.2341
11824PW       W40406   3.006   8.792   4.862 -0.4035  0.0212  0.5454
11824PW      WP40407   2.996   8.816   4.999  0.0874  0.4308  0.5219
11824PW      WM40408   2.895   8.816   4.780 -0.2437 -0.1787  0.2615
11825PW       W40409  11.316  11.338   2.574 -0.2168 -0.4255  0.6083
11825PW      WP40410  11.177  11.331   2.579 -0.3095 -0.1991 -0.4157
11825PW      WM40411  11.340  11.318   2.437  0.1305  0.4730  0.5057
11826PW       W40412   6.191  10.884   4.025 -0.3415 -0.0920  0.1597
11826PW      WP40413   6.087  10.973   4.053  0.0606  0.3398  0.3451
11826PW      WM40414   6.112  10.791   4.094 -0.5237  0.0559  0.1571
11827PW       W40415   5.403   9.343  12.217 -0.2324  0.1935 -0.3080
11827PW      WP40416   5.328   9.436  12.144 -0.3321  0.2477 -0.1401
11827PW      WM40417   5.360   9.385  12.343 -0.1167 -0.3281 -0.0804
11828PW       W40418  11.877   6.276   1.536 -0.0973 -0.4126 -0.2246
11828PW      WP40419  11.780   6.236   1.628 -0.0555  0.7264  0.4062
11828PW      WM40420  11.804   6.328   1.428 -0.4899 -0.0385  0.2015
11829PW       W40421   8.076   2.765   2.141 -0.1463  0.1855  0.1135
11829PW      WP40422   8.158   2.660   2.097  0.4222  0.6454  0.0177
11829PW      WM40423   8.037   2.699   2.024  0.1012 -0.1707  0.2222
11830PW       W40424   4.497   6.579  10.693 -0.0734 -0.0965  0.1015
11830PW      WP40425   4.552   6.453  10.722 -0.1371 -0.1680 -0.0814
11830PW      WM40426   4.574   6.595  10.809  0.2445  0.1105 -0.1277
11831PW       W40427   5.077   9.680   3.526  0.1326 -0.2610  0.2779
11831PW      WP40428   5.052   9.813   3.493  0.0229 -0.3330  0.0660
11831PW      WM40429   4.956   9.617   3.494  0.2112 -0.0782 -0.4608
11832PW       W40430  11.616   0.813   0.407 -0.2337 -0.4268  0.0667
11832PW      WP40431  11.540   0.910   0.473  0.2262 -0.1503  0.2153
11832PW      WM40432  11.753   0.794   0.432 -0.1665 -0.5977 -0.3765
11833PW       W40433   4.013  10.770   4.355 -0.0931  0.4737 -0.3669
11833PW      WP40434   3.936  10.886   4.352 -0.4477  0.2595 -0.0133
11833PW      WM40435   4.137  10.801   4.296 -0.0067  0.2200 -0.3260
11834PW       W40436   9.805  11.679  10.625 -0.4182  0.2104 -0.1420
11834PW      WP40437   9.826  11.790  10.543 -0.3178  0.1565 -0.1904
11834PW      WM40438   9.733  11.666  10.744 -0.2581 -0.1059 -0.0726
11835PW       W40439   3.469   3.325  10.349 -0.3175  0.7325 -0.2097
11835PW      WP40440   3.490   3.442  10.423 -0.6466  0.8040 -0.2189
11835PW      WM40441   3.341   3.271  10.330 -0.1728  0.3735 -0.2065
11836PW       W40442  11.234   4.116   1.268 -0.1531 -0.2679 -0.1789
11836PW      WP40443  11.115   4.044   1.281 -0.3975  0.2035  0.4921
11836PW      WM40444  11.301   4.147   1.148  0.2692  0.3767  0.1914
11837PW       W40445   1.806   4.634   9.742 -0.0499  0.2248 -0.2384
11837PW      WP40446   1.823   4.744   9.827  0.1569  0.0856 -0.0961
11837PW      WM40447   1.819   4.503   9.694 -0.2455  0.1677 -0.1413
11838PW       W40448  10.029  10.503   1.215 -0.1141  0.2052  0.1123
11838PW      WP40449   9.910  10.475   1.283  0.1938  0.0369  0.6138
11838PW      WM40450  10.160  10.544   1.246 -0.1094  0.3116 -0.0432
11839PW       W40451  10.927   3.180   1.333 -0.0818  0.0394  0.2318
11839PW      WP40452  10.811   3.253   1.307  0.2849  0.5600 -0.0455
11839PW      WM40453  10.916   3.052   1.278 -0.4155  0.0778  0.2003
11840PW       W40454   4.306   9.304   9.229 -0.0676 -0.0260  0.3651
11840PW      WP40455   4.360   9.427   9.269  0.0024  0.0531  0.0360
11840PW      WM40456   4.305   9.221   9.117 -0.4353 -0.0737  0.3979
11841PW       W40457   2.653   5.353  10.781 -0.0234 -0.6319 -0.3085
11841PW      WP40458   2.736   5.454  10.731 -0.6187 -0.1292 -0.3377
11841PW      WM40459   2.529   5.350  10.716 -0.1095  0.1879 -0.2276
11842PW       W40460  11.150  10.551  13.388 -0.2041 -0.0752 -0.2404
11842PW      WP40461  11.229  10.650  13.330  0.1051 -0.2249 -0.0905
11842PW      WM40462  11.119  10.481  13.271 -0.1655 -0.3833 -0.0742
11843PW       W40463   9.981   4.156   0.646 -0.1422 -0.1294  0.1140
11843PW      WP40464  10.110   4.125   0.691  0.0137  0.0393 -0.2007
11843PW      WM40465   9.989   4.190   0.510 -0.0506 -0.1945  0.1026
11844PW       W40466   3.135   0.182   8.801  0.1767 -0.1674 -0.0100
11844PW      WP40467   3.157   0.059   8.739  0.3789 -0.2636  0.2444
11844PW      WM40468   3.022   0.265   8.800  0.4702  0.2636  0.4066
11845PW       W40469   9.395   6.885   3.411  0.4442 -0.0060 -0.3094
11845PW      WP40470   9.289   6.908   3.500  0.4872 -0.0691 -0.2416
11845PW      WM40471   9.376   7.004   3.340 -0.5838  0.1256  0.1006
11846PW       W40472  10.360   0.517   3.091 -0.0414 -0.1987 -0.0868
11846PW      WP40473  10.308   0.646   3.072  0.1575 -0.1131 -0.0601
11846PW      WM40474  10.400   0.527   3.225 -0.2145  0.2372 -0.0599
11847PW       W40475   9.642   2.895   4.679  0.3740  0.0477 -0.1504
11847PW      WP40476   9.705   2.940   4.795 -0.6696  0.7460  0.2268
11847PW      WM40477   9.519   2.946   4.722  0.5677  0.2404  0.1937
11848PW       W40478   2.824  10.241   3.622 -0.0218  0.2447 -0.2098
11848PW      WP40479   2.698  10.269   3.567 -0.0435 -0.3988 -0.5390
11848PW      WM40480   2.842  10.342   3.717  0.2181  0.2414 -0.2490
11849PW       W40481  10.040   8.622  12.247 -0.0700 -0.1271 -0.0634
11849PW      WP40482   9.940   8.706  12.195  0.0166  0.0973  0.1240
11849PW      WM40483  10.101   8.724  12.322  0.0354 -0.0529 -0.2447
11850PW       W40484  11.640  10.479   2.244 -0.0211  0.3436 -0.1425
11850PW      WP40485  11.523  10.547   2.280  0.1939  0.4198  0.4677
11850PW      WM40486  11.752  10.500   2.162  0.3302 -0.1801  0.1786
11851PW       W40487   3.825  10.085   0.522 -0.5369 -0.4269  0.7462
11851PW      WP40488   3.895  10.110   0.640  0.0968 -0.1251  0.3363
11851PW      WM40489   3.840  10.221   0.492  0.4422 -0.6031  0.2159
11852PW       W40490   3.179   0.935   4.656 -0.2028  0.3162 -0.3703
11852PW      WP40491   3.292   0.891   4.585 -0.1790 -0.1281 -0.0792
11852PW      WM40492   3.241   1.012   4.755 -0.0342 -0.4018  0.1246
11853PW       W40493   4.671   3.683  10.959  0.3906  0.2773 -0.0029
11853PW      WP40494   4.706   3.663  11.093 -0.4085  0.2647  0.2304
11853PW      WM40495   4.537   3.653  10.932  0.4685  0.1332 -0.2489
11854PW       W40496   0.369   5.075   2.855 -0.0428  0.0545  0.1209
11854PW      WP40497   0.319   5.131   2.974 -0.2124  0.0658  0.0457
11854PW      WM40498   0.480   5.062   2.940 -0.1393 -0.0671  0.2312
11855PW       W40499   4.013   9.519   4.527  0.0895  0.0164 -0.8724
11855PW      WP40500   4.110   9.422   4.497  0.0886 -0.3363  0.0994
11855PW      WM40501   3.919   9.613   4.571 -0.1172 -0.3166 -0.5750
11856PW       W40502   9.421   6.315   0.832 -0.8134  0.4730 -0.0354
11856PW      WP40503   9.389   6.262   0.707  0.1304 -0.1299 -0.0724
11856PW      WM40504   9.491   6.250   0.935 -0.4228  0.1651 -0.4730
11857PW       W40505   0.168   0.886   8.671 -0.4016 -0.1616 -0.3303
11857PW      WP40506   0.265   0.799   8.720 -0.2289 -0.1434 -0.6280
11857PW      WM40507   0.168   0.916   8.534 -0.5217  0.4983 -0.2069
11858PW       W40508  11.033  10.125   9.897  0.3373 -0.3603 -0.2683
11858PW      WP40509  11.164  10.174   9.902 -0.0501  0.8191  0.1231
11858PW      WM40510  11.007   9.994   9.854 -0.3961 -0.4050  0.2171
11859PW       W40511   0.769   8.686   3.418 -0.0039 -0.4403  0.1824
11859PW      WP40512   0.748   8.654   3.284 -0.3115  0.1307  0.0814
11859PW      WM40513   0.899   8.726   3.450  0.1647 -0.7787 -0.0453
11860PW       W40514   6.161   3.522   9.983 -0.1075  0.0112  0.0092
11860PW      WP40515   6.163   3.532  10.123  0.1190 -0.1770  0.0213
11860PW      WM40516   6.104   3.444   9.882 -0.1003 -0.0509  0.0528
11861PW       W40517  11.861   8.066   3.423  0.2676 -0.1515  0.3925
11861PW      WP40518  11.842   8.126   3.548  0.2852  0.1619  0.2469
11861PW      WM40519  11.882   8.089   3.287  0.5608  0.4304  0.5185
11862PW       W40520   9.353  11.849  10.725 -0.1492  0.0196 -0.3401
11862PW      WP40521   9.369  11.712  10.703 -0.0480  0.0246 -0.2996
11862PW      WM40522   9.244  11.869  10.811  0.0879 -0.1829  0.0207
11863PW       W40523   5.243  10.025   0.305  0.0824  0.1507 -0.1101
11863PW      WP40524   5.126  10.026   0.382 -0.2210 -0.2015 -0.5442
11863PW      WM40525   5.263   9.914   0.222  0.3392  0.1535 -0.0550
11864PW       W40526   3.823   9.073  10.018 -0.1203 -0.1412  0.0753
11864PW      WP40527   3.692   9.067  10.065 -0.0221  0.0491  0.3884
11864PW      WM40528   3.920   9.154  10.078 -0.2502  0.1091 -0.0399
11865PW       W40529   0.923   3.268   2.636  0.1101  0.0629  0.0706
11865PW      WP40530   0.919   3.407   2.618  0.1764  0.0823  0.1993
11865PW      WM40531   0.968   3.204   2.752 -0.1392  0.0351  0.1530
11866PW       W40532   6.561   2.593  13.014 -0.1203 -0.0527  0.3161
11866PW      WP40533   6.638   2.505  12.938 -0.0811  0.1925  0.0663
11866PW      WM40534   6.608   2.723  12.993  0.2433 -0.2207  0.0471
11867PW       W40535   3.173   7.682  12.226  0.0979  0.2797  0.1273
11867PW      WP40536   3.172   7.690  12.366  0.5150 -0.0840  0.1596
11867PW      WM40537   3.290   7.609  12.247 -0.3832 -0.5702  0.0662
11868PW       W40538  10.230   3.571  11.636 -0.2002  0.3791  0.1667
11868PW      WP40539  10.145   3.499  11.550  0.2721  0.0948 -0.0848
11868PW      WM40540  10.182   3.447  11.683 -0.4840  0.2696 -0.3630
11869PW       W40541   7.326   2.916   9.532  0.1858  0.3741 -0.3281
11869PW      WP40542   7.458   2.889   9.572 -0.0079 -0.1417  0.0207
11869PW      WM40543   7.212   2.949   9.459  0.0900  0.6040 -0.0813
11870PW       W40544   8.213   4.485   3.364  0.0878  0.0298  0.3065
11870PW      WP40545   8.264   4.521   3.239  0.0783 -0.3266  0.1947
11870PW      WM40546   8.074   4.466   3.368  0.0410  0.0155 -0.5174
11871PW       W40547   6.869  12.052  11.448 -0.1148 -0.0162 -0.0286
11871PW      WP40548   6.974  11.995  11.375  0.1400  0.3737  0.0173
11871PW      WM40549   6.822  12.183  11.436  0.1362  0.0477 -0.3978
11872PW       W40550   4.805   9.983   8.904  0.2868  0.0717 -0.1887
11872PW      WP40551   4.784  10.004   8.767 -0.3205  0.1210 -0.1008
11872PW      WM40552   4.727  10.028   9.010  0.2518  0.1891 -0.2634
11873PW       W40553   4.257   4.345   9.761 -0.0302 -0.2025  0.0372
11873PW      WP40554   4.164   4.337   9.657  0.2517  0.1892 -0.2562
11873PW      WM40555   4.373   4.362   9.686 -0.1984 -0.5708 -0.3264
11874PW       W40556   3.556   1.137   3.892  0.1178 -0.3712 -0.0385
11874PW      WP40557   3.656   1.232   3.870  0.1873 -0.3608  0.3032
11874PW      WM40558   3.453   1.093   3.976 -0.0176 -0.1981 -0.1114
11875PW       W40559  10.548   3.907   9.598 -0.3403 -0.1378 -0.2359
11875PW      WP40560  10.415   3.865   9.614 -0.1445 -0.6962  0.0605
11875PW      WM40561  10.503   3.791   9.662  0.4777 -0.1588  0.3814
11876PW       W40562  12.058   8.407   3.803  0.2318  0.0222  0.1804
11876PW      WP40563  12.153   8.393   3.701 -0.1060  0.3861 -0.2046
11876PW      WM40564  12.186   8.438   3.850  0.1060  0.1865  0.4294
11877PW       W40565   7.193   5.577  11.880  0.2332  0.1181  0.1414
11877PW      WP40566   7.190   5.455  11.950 -0.7050  0.0797  0.0880
11877PW      WM40567   7.144   5.446  11.873  0.0728  0.1525  0.5058
11878PW       W40568   1.344   8.224   4.527  0.1436 -0.1897  0.5435
11878PW      WP40569   1.327   8.344   4.597  0.0404  0.5684 -0.6420
11878PW      WM40570   1.234   8.165   4.463  0.3170 -0.0315  0.0759
11879PW       W40571  10.373   3.313   0.269 -0.1776  0.0961 -0.0058
11879PW      WP40572  10.375   3.198   0.189 -0.1064  0.3702 -0.4108
11879PW      WM40573  10.246   3.361   0.304 -0.3682 -0.4279  0.0697
11880PW       W40574   7.389   6.185   0.560  0.0031 -0.0321  0.1035
11880PW      WP40575   7.304   6.287   0.604  0.3718  0.2847  0.1142
11880PW      WM40576   7.349   6.148   0.431  0.3095  0.1504 -0.0502
11881PW       W40577   9.874   5.705  11.910 -0.3354 -0.2254  0.1224
11881PW      WP40578   9.802   5.808  11.970 -0.1274  0.1840 -0.2992
11881PW      WM40579   9.955   5.793  11.838 -0.4055  0.0339  0.3535
11882PW       W40580   2.164   4.963   8.820 -0.5176  0.3746 -0.1362
11882PW      WP40581   2.130   4.855   8.903  0.2541  0.1803 -0.0375
11882PW      WM40582   2.110   4.941   8.693  0.1313 -0.6424 -0.2929
11883PW       W40583   5.878   4.322   1.234 -0.1157 -0.3103 -0.0148
11883PW      WP40584   6.002   4.321   1.170 -0.0929 -0.0585  0.0197
11883PW      WM40585   5.855   4.456   1.200 -0.0209 -0.1765  0.4204
11884PW       W40586   9.339   5.749   0.667 -0.0320 -0.0481 -0.1228
11884PW      WP40587   9.360   5.652   0.568 -0.0169 -0.4364  0.2453
11884PW      WM40588   9.204   5.733   0.633 -0.0697  0.3079 -0.1659
11885PW       W40589   7.105   9.512  11.336 -0.2885  0.3251  0.0679
11885PW      WP40590   7.158   9.500  11.465  0.1580 -0.4295 -0.1543
11885PW      WM40591   7.003   9.521  11.431 -0.3076 -0.4424  0.1512
11886PW       W40592   9.067   7.394   4.575  0.0318 -0.0674  0.1053
11886PW      WP40593   9.193   7.451   4.592  0.0354 -0.0861  0.1405
11886PW      WM40594   9.034   7.476   4.684 -0.1174 -0.0134  0.0221
11887PW       W40595   2.839   0.120   9.194  0.2566 -0.2358 -0.0759
11887PW      WP40596   2.743   0.058   9.275 -0.4380  0.6654 -0.1231
11887PW      WM40597   2.973   0.128   9.231  0.1627  0.2387  0.2040
11888PW       W40598   8.218   3.904  11.919 -0.1409 -0.3920 -0.1113
11888PW      WP40599   8.205   3.777  11.976 -0.1572 -0.2255  0.2688
11888PW      WM40600   8.227   3.848  11.790  0.6890  0.1120 -0.3156
11889PW       W40601   2.124   3.671  10.495  0.0429  0.3751 -0.3661
11889PW      WP40602   1.990   3.678  10.536  0.2382  0.0996  0.3994
11889PW      WM40603   2.251   3.612  10.492 -0.0206  0.2059  0.0060
11890PW       W40604   5.717   5.776   8.583  0.3077 -0.2984  0.3601
11890PW      WP40605   5.602   5.696   8.584  0.1208 -0.0682 -0.3565
11890PW      WM40606   5.823   5.684   8.573  0.4846 -0.1475  0.7201
11891PW       W40607   0.969   4.316  10.008 -0.1038  0.1817 -0.3352
11891PW      WP40608   0.871   4.416  10.000 -0.1601  0.1679  0.0712
11891PW      WM40609   0.996   4.301   9.871  0.1380 -0.1468 -0.2574
11892PW       W40610   6.555   7.066   2.315  0.3961  0.2426  0.1382
11892PW      WP40611   6.609   6.989   2.419  0.7351 -0.2015 -0.3417
11892PW      WM40612   6.601   6.973   2.222  0.1868  0.0495  0.2252
11893PW       W40613  11.475   4.377  12.986  0.7382  0.6365  0.4439
11893PW      WP40614  11.534   4.394  12.860 -0.2798 -0.5050 -0.3012
11893PW      WM40615  11.403   4.483  13.043 -0.1637  0.3241 -0.0241
11894PW       W40616  10.241   5.587  11.176 -0.1320 -0.0362  0.0008
11894PW      WP40617  10.357   5.546  11.108 -0.0812  0.2898 -0.1186
11894PW      WM40618  10.182   5.587  11.049 -0.1839 -0.2284  0.0235
11895PW       W40619  10.178  10.857   0.360  0.3251 -0.1763 -0.3460
11895PW      WP40620  10.125  10.894   0.236  0.1516  0.2817 -0.1467
11895PW      WM40621  10.098  10.755   0.306  0.0478 -0.3262  0.3005
11896PW       W40622  11.893   1.145   3.758 -0.1190  0.1142 -0.4377
11896PW      WP40623  11.975   1.255   3.784 -0.1121 -0.0881  0.5876
11896PW      WM40624  11.768   1.097   3.799 -0.0841  0.1374 -0.3044
11897PW       W40625   3.776  11.577  11.441 -0.1903  0.2451  0.4380
11897PW      WP40626   3.665  11.530  11.370  0.1472  0.3708 -0.2147
11897PW      WM40627   3.901  11.520  11.412  0.0105  0.6652  0.4457
11898PW       W40628  10.814  11.501   2.533 -0.0613 -0.1812 -0.0235
11898PW      WP40629  10.818  11.486   2.394 -0.0569  0.4237 -0.1032
11898PW      WM40630  10.904  11.401   2.571  0.4621  0.4264  0.4522
11899PW       W40631   6.266   4.375   1.630 -0.4131  0.2994 -0.0865
11899PW      WP40632   6.353   4.484   1.618  0.1623 -0.0853  0.3161
11899PW      WM40633   6.161   4.422   1.711 -0.1365  0.0562  0.4380
11900PW       W40634   1.061  10.733   4.491 -0.1028 -0.3670 -0.1867
11900PW      WP40635   1.063  10.858   4.555 -0.1514 -0.3770 -0.1655
11900PW      WM40636   1.104  10.618   4.558 -0.1143 -0.1519  0.2037
11901PW       W40637   8.371   4.797   1.813  0.0160 -0.4242 -0.0471
11901PW      WP40638   8.234   4.823   1.822  0.0372 -0.1575 -0.3997
11901PW      WM40639   8.431   4.782   1.939 -0.2478 -0.0483  0.1318
11902PW       W40640   9.043   4.681   3.824 -0.4637 -0.1546 -0.5556
11902PW      WP40641   9.118   4.751   3.728  0.1553 -0.0802 -0.0479
11902PW      WM40642   9.054   4.550   3.872 -0.0979  0.0387 -0.0649
11903PW       W40643   5.257   7.341  10.753 -0.3786  0.1632 -0.0284
11903PW      WP40644   5.267   7.261  10.638 -0.9815  0.3065 -0.2008
11903PW      WM40645   5.351   7.393  10.842 -0.2168  0.1843 -0.2082
11904PW       W40646   5.319   9.393   1.527 -0.3897 -0.4464  0.4062
11904PW      WP40647   5.309   9.287   1.436 -0.3316 -0.3077  0.2362
11904PW      WM40648   5.263   9.497   1.602  0.3134  0.0229  0.3234
11905PW       W40649   7.913   8.727   1.186  0.0223  0.0853 -0.3629
11905PW      WP40650   7.998   8.799   1.272 -0.0479  0.0093 -0.2287
11905PW      WM40651   7.993   8.631   1.122  0.3053  0.4846 -0.6324
11906PW       W40652   9.499  10.215   4.017 -0.3209 -0.3432 -0.2835
11906PW      WP40653   9.624  10.154   3.997 -0.2171 -0.2126 -0.0502
11906PW      WM40654   9.414  10.288   4.100 -0.2241 -0.4539 -0.0807
11907PW       W40655  11.889   3.237   2.815 -0.4102 -0.4478 -0.2560
11907PW      WP40656  11.950   3.174   2.925 -0.1713  0.0157 -0.1125
11907PW      WM40657  11.783   3.243   2.724 -0.4457  0.2019 -0.1927
11908PW       W40658   4.282   6.457  10.274  0.1906  0.1639  0.1501
11908PW      WP40659   4.374   6.475  10.170 -0.1865  0.3442 -0.1630
11908PW      WM40660   4.291   6.354  10.369 -0.2248  0.0231  0.0450
11909PW       W40661   5.347   2.920   2.937  0.1292 -0.2526  0.1795
11909PW      WP40662   5.445   2.959   3.029  0.3540 -0.0405 -0.1376
11909PW      WM40663   5.463   2.852   2.899  0.0812 -0.0241 -0.4362
11910PW       W40664   3.530   0.754   5.002  0.4155 -0.1089 -0.0512
11910PW      WP40665   3.626   0.834   5.065  0.0420  0.2858  0.0381
11910PW      WM40666   3.508   0.849   5.103  0.3691 -0.3885  0.2078
11911PW       W40667   7.679   9.662   2.642  0.2634 -0.1493  0.2078
11911PW      WP40668   7.675   9.775   2.559 -0.3687 -0.0898  0.2964
11911PW      WM40669   7.585   9.571   2.592 -0.0698  0.4955 -0.4217
11912PW       W40670   2.700   9.909   0.307  0.0029  0.1327  0.0175
11912PW      WP40671   2.785   9.969   0.214  0.1024 -0.3146 -0.1937
11912PW      WM40672   2.785   9.828   0.383  0.1882  0.3840  0.0834
11913PW       W40673   5.407   9.459   4.989  0.1584 -0.1230  0.1051
11913PW      WP40674   5.279   9.447   5.044  0.0870  0.6622  0.1691
11913PW      WM40675   5.487   9.538   5.073 -0.1679  0.0081  0.3007
11914PW       W40676   5.376  11.329   1.487 -0.2511 -0.0066  0.0684
11914PW      WP40677   5.435  11.419   1.576  0.0548  0.1319 -0.2622
11914PW      WM40678   5.262  11.349   1.566 -0.2013 -0.1837  0.1871
11915PW       W40679   8.810   7.069   1.009 -0.1263  0.0541 -0.2376
11915PW      WP40680   8.795   7.163   1.112 -0.1538 -0.1706 -0.0313
11915PW      WM40681   8.880   6.950   1.034 -0.1481  0.0646 -0.1195
11916PW       W40682   3.657   0.220   3.262  0.1182 -0.1973 -0.1435
11916PW      WP40683   3.733   0.117   3.318 -0.1382 -0.2862  0.0528
11916PW      WM40684   3.590   0.257   3.145 -0.2906  0.0576  0.1596
11917PW       W40685   5.717   6.341   1.416  0.2196 -0.2163 -0.1554
11917PW      WP40686   5.683   6.315   1.550 -0.3574 -0.5170 -0.3434
11917PW      WM40687   5.677   6.474   1.395 -0.2709 -0.3571 -0.1815
11918PW       W40688   7.823   2.776   2.908 -0.2457  0.2379 -0.4430
11918PW      WP40689   7.721   2.868   2.937 -0.3267  0.0291 -0.0172
11918PW      WM40690   7.895   2.709   2.809 -0.1236  0.1833 -0.3197
11919PW       W40691   1.757   5.948   1.032 -0.3992  0.2690  0.3689
11919PW      WP40692   1.806   6.069   1.084 -0.1613  0.2898  0.1054
11919PW      WM40693   1.798   5.898   0.908 -0.1336  0.4385  0.3842
11920PW       W40694   2.893   0.546   1.131 -0.1928 -0.0568  0.0169
11920PW      WP40695   2.895   0.655   1.218 -0.3441  0.0540 -0.1147
11920PW      WM40696   2.832   0.634   1.040 -0.2033  0.0511  0.1274
11921PW       W40697   2.134  10.740   0.340 -0.4663  0.2455  0.1990
11921PW      WP40698   2.065  10.846   0.400  0.1726  0.4612  0.5977
11921PW      WM40699   2.061  10.662   0.248 -0.1652  0.2308 -0.0351
11922PW       W40700   1.848   5.298  11.354  0.3435 -0.0534  0.1379
11922PW      WP40701   1.909   5.179  11.394  0.3118 -0.0508  0.1958
11922PW      WM40702   1.762   5.275  11.463  0.1818 -0.2920 -0.0342
11923PW       W40703   2.264  11.633   1.579  0.0827 -0.3183  0.0347
11923PW      WP40704   2.359  11.535   1.611 -0.1135 -0.4767  0.1403
11923PW      WM40705   2.149  11.556   1.563  0.0340 -0.2192 -0.1081
11924PW       W40706   6.168   0.552   2.758  0.2158 -0.1365  0.1605
11924PW      WP40707   6.106   0.676   2.737  0.4620 -0.0675 -0.2036
11924PW      WM40708   6.118   0.443   2.686  0.1125  0.1383 -0.2004
11925PW       W40709  10.959   3.974   0.812  0.1569  0.1667 -0.1393
11925PW      WP40710  10.890   4.095   0.826 -0.1573 -0.0460  0.3004
11925PW      WM40711  10.998   3.840   0.827 -0.5826 -0.1206 -0.5241
11926PW       W40712   0.313   6.772   1.081  0.0919 -0.0098 -0.2143
11926PW      WP40713   0.177   6.792   1.056  0.1076  0.6049  0.1160
11926PW      WM40714   0.367   6.719   0.962  0.4607  0.5913 -0.3344
11927PW       W40715   5.711  10.084   2.239  0.1526 -0.4584  0.0410
11927PW      WP40716   5.642  10.205   2.246  0.2570 -0.4113  0.3775
11927PW      WM40717   5.708  10.018   2.116  0.1190  0.1235 -0.2861
11928PW       W40718   2.307   0.003   1.501 -0.0880 -0.0092  0.0103
11928PW      WP40719   2.286   0.129   1.559 -1.0232 -0.1173 -0.0298
11928PW      WM40720   2.420  -0.032   1.426  0.5124  0.0315  0.8212
11929PW       W40721   0.225   3.475  12.894  0.0340 -0.1880  0.2885
11929PW      WP40722   0.222   3.432  13.027 -0.1731 -0.6085  0.1553
11929PW      WM40723   0.244   3.603  12.840 -0.1917 -0.2740 -0.0005
11930PW       W40724   0.456   5.738   1.938  0.1672  0.0480  0.0024
11930PW      WP40725   0.540   5.780   2.041 -0.0555  0.4012  0.0502
11930PW      WM40726   0.570   5.667   1.976 -0.1177 -0.0998  0.6558
11931PW       W40727   2.718   3.192  13.078 -0.3429 -0.3179  0.1176
11931PW      WP40728   2.718   3.214  13.216  0.3746  0.3197  0.0537
11931PW      WM40729   2.781   3.068  13.086 -0.1286 -0.2008  0.2955
11932PW       W40730   9.019   9.471  10.402  0.7287  0.0019 -0.5115
11932PW      WP40731   9.120   9.375  10.392  0.4677 -0.3438 -0.0331
11932PW      WM40732   9.016   9.545  10.282 -0.3329  0.2905 -0.3605
11933PW       W40733  11.657   6.406  11.948 -0.1901 -0.0022  0.1464
11933PW      WP40734  11.637   6.321  11.838  0.1231 -0.2793  0.2942
11933PW      WM40735  11.792   6.438  11.966 -0.0616 -0.3102 -0.2033
11934PW       W40736   0.710  10.329   4.464  0.0188  0.0858  0.0946
11934PW      WP40737   0.828  10.299   4.393 -0.0913 -0.1084 -0.0108
11934PW      WM40738   0.594  10.251   4.458  0.2515 -0.2605 -0.1630
11935PW       W40739   9.348  11.601   3.903  0.3341  0.2395 -0.2130
11935PW      WP40740   9.257  11.706   3.890  0.0302  0.0031 -0.0376
11935PW      WM40741   9.372  11.592   3.766 -0.4496 -0.0772 -0.3552
11936PW       W40742   2.828   5.631  12.226 -0.0185  0.0593  0.0383
11936PW      WP40743   2.844   5.492  12.242 -0.2558 -0.0182 -0.3215
11936PW      WM40744   2.861   5.599  12.093  0.3123  0.3465  0.0437
11937PW       W40745   2.013   0.643   8.353 -0.2394 -0.2808 -0.1349
11937PW      WP40746   1.887   0.695   8.324 -0.0991  0.2065  0.0859
11937PW      WM40747   2.067   0.554   8.447  0.1104  0.0969  0.0340
11938PW       W40748  11.723  10.995   1.679  0.1261 -0.1005 -0.2107
11938PW      WP40749  11.851  10.972   1.730 -0.0234 -0.6056 -0.0351
11938PW      WM40750  11.587  11.011   1.706  0.1824 -0.0526  0.0566
11939PW       W40751   3.421   2.175   2.371  0.2492 -0.0686  0.1059
11939PW      WP40752   3.391   2.276   2.278  0.1796 -0.3029 -0.1338
11939PW      WM40753   3.366   2.048   2.390 -0.1113  0.0196 -0.2687
11940PW       W40754   7.058   7.817   9.419 -0.3037 -0.2963  0.3901
11940PW      WP40755   7.165   7.742   9.470  0.0873 -0.0356 -0.0091
11940PW      WM40756   7.052   7.692   9.482 -0.1765 -0.5170 -0.0161
11941PW       W40757   2.147   2.944   2.901 -0.2809  0.0718 -0.0954
11941PW      WP40758   2.271   2.997   2.938 -0.1628 -0.2606  0.0060
11941PW      WM40759   2.113   2.909   2.769  0.7036  0.0487 -0.3808
11942PW       W40760   4.664   6.304   3.931 -0.8925 -0.5191  0.7546
11942PW      WP40761   4.590   6.412   3.980 -0.3725  0.3444 -0.1796
11942PW      WM40762   4.578   6.319   3.821 -0.0180  0.7547  0.1247
11943PW       W40763   5.949   5.948  13.284 -0.1125  0.4132 -0.0195
11943PW      WP40764   5.812   5.938  13.257 -0.0197 -0.1797 -0.3581
11943PW      WM40765   6.057   5.919  13.369 -0.3195  0.4805  0.2742
11944PW       W40766   3.813  11.829   1.503  0.0669 -0.0591 -0.1641
11944PW      WP40767   3.783  11.801   1.369 -0.2995  0.4497 -0.1977
11944PW      WM40768   3.776  11.941   1.577  0.4499  0.3179 -0.5199
11945PW       W40769   3.474   0.821   4.313 -0.0087 -0.0032 -0.2583
11945PW      WP40770   3.381   0.739   4.248 -0.0507 -0.3622  0.2216
11945PW      WM40771   3.397   0.820   4.430  0.4248 -0.0032  0.0417
11946PW       W40772   3.494   6.959  10.063 -0.0855  0.0664  0.1791
11946PW      WP40773   3.474   7.021   9.939 -0.9731 -0.2750  0.1131
11946PW      WM40774   3.383   6.932  10.144 -0.3985 -0.4790 -0.3891
11947PW       W40775   4.019   1.363   2.270  0.0221 -0.1680  0.1275
11947PW      WP40776   4.140   1.389   2.203 -0.1751 -0.1226 -0.2216
11947PW      WM40777   4.024   1.465   2.365 -0.3872 -0.0673  0.0513
11948PW       W40778   4.178   5.401   2.234  0.1800 -0.2212 -0.2639
11948PW      WP40779   4.166   5.539   2.252 -0.4588 -0.2918 -0.0058
11948PW      WM40780   4.267   5.357   2.332  0.0226 -0.0002 -0.0162
11949PW       W40781  11.952  12.088  12.108  0.3464 -0.2850  0.1666
11949PW      WP40782  11.879  11.969  12.125 -0.1597  0.0178  0.2342
11949PW      WM40783  11.949  12.228  12.108 -0.2553 -0.2831  0.1623
11950PW       W40784   3.261   3.346  11.875  0.3267  0.2630  0.0642
11950PW      WP40785   3.389   3.307  11.918  0.2362 -0.0613  0.0516
11950PW      WM40786   3.170   3.241  11.885  0.4068  0.1796 -0.0626
11951PW       W40787  11.636   2.882  12.331  0.0497 -0.3603 -0.1441
11951PW      WP40788  11.660   2.938  12.457 -0.5412 -0.1799 -0.0968
11951PW      WM40789  11.598   2.748  12.351  0.1036 -0.3342  0.1590
11952PW       W40790   2.375   4.838   2.151 -0.4436  0.1015 -0.2235
11952PW      WP40791   2.507   4.875   2.181 -0.3976 -0.1078 -0.1576
11952PW      WM40792   2.393   4.904   2.273  0.0422  0.2206 -0.3490
11953PW       W40793   2.011   9.229  12.602  0.2446  0.0686  0.4664
11953PW      WP40794   1.973   9.129  12.693 -0.0917 -0.1388  0.1125
11953PW      WM40795   2.097   9.247  12.711  0.4095 -0.5533  0.4607
11954PW       W40796   9.051  11.390   8.385  0.0754 -0.0453 -0.1645
11954PW      WP40797   8.977  11.469   8.297  0.0410  0.3562  0.2092
11954PW      WM40798   9.172  11.446   8.428 -0.2607  0.2060  0.5246
11955PW       W40799   7.251  10.721   9.327 -0.3252 -0.1232  0.1339
11955PW      WP40800   7.130  10.661   9.363 -0.2742 -0.0863  0.3757
11955PW      WM40801   7.169  10.720   9.213 -0.3025  0.3359  0.1035
11956PW       W40802   5.443   6.123   5.260  0.0816  0.3417  0.6271
11956PW      WP40803   5.558   6.091   5.333  0.3195 -0.1149  0.0838
11956PW      WM40804   5.517   6.044   5.172  0.1376  0.3718  0.6468
11957PW       W40805   5.702   9.970   1.755  0.2393 -0.0236  0.1548
11957PW      WP40806   5.645   9.901   1.862  0.0313 -0.1081 -0.0076
11957PW      WM40807   5.659  10.088   1.693  0.3055 -0.1009 -0.0427
11958PW       W40808   6.667   9.189   8.151 -0.1711 -0.6371  0.0535
11958PW      WP40809   6.782   9.131   8.206  0.3818  0.3483  0.0493
11958PW      WM40810   6.550   9.200   8.227 -0.0068  0.7513  0.2305
11959PW       W40811  11.822   5.986   8.268  0.1073  0.1122 -0.4199
11959PW      WP40812  11.697   5.991   8.332  0.3326 -0.3190  0.0929
11959PW      WM40813  11.853   6.122   8.280  0.1346  0.0925 -0.2555
11960PW       W40814   0.953   6.802   3.152 -0.4146  0.0036  0.0848
11960PW      WP40815   1.062   6.776   3.235 -0.1469  0.1161 -0.2216
11960PW      WM40816   0.956   6.942   3.145 -0.0104 -0.0176 -0.3986
11961PW       W40817   6.255   3.501  11.046  0.0647  0.1406 -0.3439
11961PW      WP40818   6.157   3.415  11.098  0.2975 -0.0757 -0.2560
11961PW      WM40819   6.349   3.485  11.149 -0.0498  0.5078 -0.1721
11962PW       W40820   3.610  10.115   2.817 -0.7140 -0.3408  0.0081
11962PW      WP40821   3.591  10.070   2.686 -0.1328 -0.0326 -0.1970
11962PW      WM40822   3.664  10.030   2.914  0.3155  0.2004 -0.0231
11963PW       W40823  10.287  11.517  10.504 -0.1344  0.0942  0.1951
11963PW      WP40824  10.360  11.552  10.619  0.1892  0.0197  0.0173
11963PW      WM40825  10.169  11.552  10.571 -0.0506  0.1372  0.3229
11964PW       W40826   3.718  10.373  10.797 -0.0213  0.6006 -0.2153
11964PW      WP40827   3.586  10.402  10.835  0.0915  0.0490  0.7702
11964PW      WM40828   3.744  10.306  10.917  0.0503  0.2033 -0.4429
11965PW       W40829   8.106   8.373   2.850 -0.1070 -0.2584 -0.0864
11965PW      WP40830   8.027   8.443   2.758  0.3285 -0.3632 -0.5629
11965PW      WM40831   8.206   8.471   2.838 -0.4544  0.0763 -0.3746
11966PW       W40832   8.025   6.694   4.484  0.0459 -0.2293  0.3212
11966PW      WP40833   7.901   6.727   4.429  0.2212  0.0462  0.0740
11966PW      WM40834   8.100   6.774   4.572  0.1558  0.0522 -0.0142
11967PW       W40835   1.461   8.541  11.369 -0.0412 -0.2204 -0.3106
11967PW      WP40836   1.457   8.413  11.425 -0.0075  0.0184  0.2805
11967PW      WM40837   1.565   8.626  11.331 -0.1906  0.0838 -0.0619
11968PW       W40838   2.073   8.431  13.012 -0.2139 -0.2341 -0.2582
11968PW      WP40839   1.960   8.456  13.092 -0.1239 -0.5513 -0.0198
11968PW      WM40840   2.062   8.480  12.882  0.1573  0.0879 -0.1772
11969PW       W40841  10.809   3.489   3.514  0.2072 -0.0170  0.2126
11969PW      WP40842  10.830   3.365   3.453  0.0481  0.1020 -0.0968
11969PW      WM40843  10.721   3.530   3.616 -0.0745 -0.4617  0.1614
11970PW       W40844   2.477   5.227   1.291  0.2226  0.2515 -0.2608
11970PW      WP40845   2.485   5.214   1.430 -0.2912  0.0889 -0.2379
11970PW      WM40846   2.544   5.308   1.198  0.3753  0.5511  0.0964
11971PW       W40847   0.832  10.832   0.009  0.1302  0.3423  0.2146
11971PW      WP40848   0.891  10.800   0.131  0.1296  0.2913  0.2019
11971PW      WM40849   0.798  10.967  -0.004 -0.2287  0.1992 -0.9244
11972PW       W40850   4.196   2.132   1.765  0.0864 -0.1343  0.4398
11972PW      WP40851   4.141   2.256   1.730  0.5575  0.0390  0.2665
11972PW      WM40852   4.205   2.136   1.904 -0.0972  0.1512  0.4472
11973PW       W40853   9.629  11.694   2.422  0.6315 -0.1325  0.4735
11973PW      WP40854   9.743  11.713   2.343  0.3465 -0.4550 -0.0393
11973PW      WM40855   9.585  11.773   2.530  0.1146  0.1054  0.1073
11974PW       W40856   5.936   7.333  10.258 -0.3980  0.0583 -0.1534
11974PW      WP40857   5.814   7.346  10.190 -0.3064  0.2017 -0.2926
11974PW      WM40858   5.937   7.344  10.398 -0.8316 -0.3024 -0.1108
11975PW       W40859   9.917  10.524  10.837 -0.4837 -0.4197 -0.3292
11975PW      WP40860   9.861  10.453  10.944  0.0977  0.1725  0.4368
11975PW      WM40861   9.969  10.597  10.730  0.0224 -0.3024 -0.0181
11976PW       W40862   3.472   9.848   8.781 -0.0215 -0.1522 -0.1943
11976PW      WP40863   3.524   9.794   8.663  0.3393  0.2741 -0.2406
11976PW      WM40864   3.557   9.907   8.875 -0.1454  0.3345 -0.3758
11977PW       W40865  10.595   9.100   2.897  0.0637  0.2940 -0.2806
11977PW      WP40866  10.644   8.986   2.962 -0.1041  0.3586 -0.0322
11977PW      WM40867  10.558   9.096   3.032 -0.0605 -0.1824 -0.3173
11978PW       W40868   0.756   4.835  13.303  0.0005 -0.3236 -0.1014
11978PW      WP40869   0.865   4.754  13.269  0.1948 -0.1238  0.0375
11978PW      WM40870   0.642   4.857  13.382  0.1617  0.1442  0.0155
11979PW       W40871   0.494   3.924  10.010 -0.2107 -0.0947  0.0581
11979PW      WP40872   0.377   3.874   9.953 -0.0811 -0.3408  0.0016
11979PW      WM40873   0.489   3.909  10.149 -0.0395  0.1160  0.0886
11980PW       W40874  10.935   4.010   4.281  0.3285 -0.1754  0.1887
11980PW      WP40875  11.025   4.115   4.301 -0.4400  0.6635 -0.3382
11980PW      WM40876  10.901   4.027   4.146  0.2009  0.0410  0.2461
11981PW       W40877   6.516   3.907   9.987  0.4488  0.0067 -0.2003
11981PW      WP40878   6.608   3.826  10.054 -0.0381 -0.0419  0.4533
11981PW      WM40879   6.480   4.032   9.935 -0.2796 -0.1170 -0.0443
11982PW       W40880   0.151   3.704   1.224  0.4696  0.3144  0.4524
11982PW      WP40881   0.156   3.566   1.198  0.0450  0.3977 -0.1810
11982PW      WM40882   0.045   3.792   1.197 -0.0692 -0.4780 -0.2875
11983PW       W40883   6.664   4.126   5.357  0.0014 -0.0695  0.3324
11983PW      WP40884   6.745   4.208   5.278 -0.2789  0.1299  0.2450
11983PW      WM40885   6.669   4.002   5.292 -0.2221  0.0314  0.1136
11984PW       W40886   8.226  11.379  10.139  0.0276  0.0377  0.3252
11984PW      WP40887   8.323  11.284  10.170 -0.0653 -0.1244  0.1292
11984PW      WM40888   8.105  11.411  10.076  0.0976 -0.1428  0.0927
11985PW       W40889   9.933   2.094   4.648 -0.8740 -0.0717 -0.6762
11985PW      WP40890   9.947   1.989   4.740 -0.6411  0.5188 -0.0008
11985PW      WM40891   9.853   2.172   4.731 -0.0461  0.1000  0.0293
11986PW       W40892   9.568   5.529   1.923  0.0081 -0.5824 -0.2302
11986PW      WP40893   9.480   5.591   2.013  0.5556  0.1172 -0.1347
11986PW      WM40894   9.523   5.409   1.979  0.1642 -0.4305  0.2428
11987PW       W40895  11.737  10.308  11.652 -0.4425  0.0991  0.0778
11987PW      WP40896  11.762  10.353  11.522 -0.0605 -0.1288  0.0647
11987PW      WM40897  11.645  10.405  11.692 -0.0278  0.4227  0.2887
11988PW       W40898   1.973   4.126  12.621 -0.0808 -0.0722  0.1790
11988PW      WP40899   2.111   4.119  12.597 -0.0860 -0.0027  0.1296
11988PW      WM40900   1.931   4.119  12.755 -0.0892  0.4794  0.2177
11989PW       W40901   8.732   2.543  11.968  0.0471 -0.1640 -0.0475
11989PW      WP40902   8.734   2.636  11.863 -0.1582  0.1294  0.2017
11989PW      WM40903   8.849   2.469  11.982  0.3051  0.2904  0.3263
11990PW       W40904   4.235   9.868   3.936 -0.0119 -0.4756  0.1551
11990PW      WP40905   4.111   9.882   3.999  0.1210  0.1407  0.3126
11990PW      WM40906   4.322   9.873   3.826  0.2075 -0.0974  0.3346
11991PW       W40907  10.454   4.554   3.590 -0.2729  0.0750 -0.0260
11991PW      WP40908  10.391   4.581   3.468 -0.1250  0.1579 -0.0840
11991PW      WM40909  10.426   4.435   3.522  0.0264  0.1587 -0.3005
11992PW       W40910   2.602   4.634   3.443 -0.2401 -0.2983 -0.1452
11992PW      WP40911   2.532   4.752   3.417  0.1462 -0.0486 -0.0941
11992PW      WM40912   2.509   4.618   3.340 -0.5235  0.4748 -0.0450
11993PW       W40913   8.186   9.918   9.034 -0.2170  0.2008  0.1388
11993PW      WP40914   8.118   9.803   9.075 -0.0466 -0.1034 -0.3830
11993PW      WM40915   8.299   9.906   8.951 -0.2414  0.0349  0.1294
11994PW       W40916   1.415   5.844   1.935 -0.3051  0.1956  0.0757
11994PW      WP40917   1.283   5.803   1.953 -0.1550 -0.1902  0.3666
11994PW      WM40918   1.372   5.928   2.039 -0.0789  0.0813  0.2654
11995PW       W40919   7.021   7.466  10.951 -0.2804 -0.2712  0.0268
11995PW      WP40920   7.019   7.455  10.811 -0.4990 -0.1846  0.0214
11995PW      WM40921   6.996   7.344  10.887 -0.1371 -0.4077  0.2257
11996PW       W40922   1.675   5.352   5.129  0.0359 -0.0619 -0.3252
11996PW      WP40923   1.547   5.405   5.109 -0.0726  0.0346  0.4545
11996PW      WM40924   1.735   5.437   5.036  0.7528 -0.3680 -0.1781
11997PW       W40925  11.893   5.464   9.324 -0.0384  0.1941 -0.6246
11997PW      WP40926  11.950   5.371   9.412  0.4906  0.5015 -0.6266
11997PW      WM40927  11.919   5.347   9.252 -0.1805 -0.2136 -0.0512
11998PW       W40928   9.454   3.414  13.341  0.0442  0.4135 -0.1294
11998PW      WP40929   9.329   3.352  13.341  0.4351 -0.4761 -0.5695
11998PW      WM40930   9.560   3.340  13.395 -0.1154  0.3637  0.1227
11999PW       W40931   5.831  11.202   3.441  0.6646  0.2420  0.2654
11999PW      WP40932   5.911  11.089   3.459  0.0572 -0.2609  0.0209
11999PW      WM40933   5.856  11.300   3.345  0.0123 -0.2441 -0.4639
12000PW       W40934   6.748   0.775  12.752 -0.1757  0.1652 -0.1032
12000PW      WP40935   6.778   0.806  12.619  0.2898  0.3112  0.0258
12000PW      WM40936   6.874   0.820  12.792  0.0617 -0.0210 -0.6034
12001PW       W40937  11.198   5.232  12.863 -0.4836  0.5540 -0.0828
12001PW      WP40938  11.315   5.307  12.881  0.2218 -0.4232 -0.2495
12001PW      WM40939  11.122   5.149  12.946  0.3697  0.2708  0.4904
12002PW       W40940   8.175   0.787   2.430 -0.1126 -0.0221 -0.0431
12002PW      WP40941   8.302   0.749   2.476 -0.2604  0.2123  0.5993
12002PW      WM40942   8.039   0.807   2.406 -0.2780 -0.1475  0.6777
12003PW       W40943   2.970   8.090   9.319  0.1936  0.1276  0.0427
12003PW      WP40944   2.883   8.143   9.223  0.0462 -0.2825 -0.0598
12003PW      WM40945   3.015   7.958   9.305  0.5883  0.2709 -0.1195
12004PW       W40946   0.620   5.759  11.458  0.2285 -0.2177 -0.0265
12004PW      WP40947   0.597   5.854  11.557  0.4714 -0.2160  0.0315
12004PW      WM40948   0.570   5.644  11.395 -0.3035 -0.0634  0.0897
12005PW       W40949   2.736   2.756   1.784 -0.1055 -0.1901 -0.5512
12005PW      WP40950   2.828   2.662   1.831 -0.1209 -0.0379 -0.2031
12005PW      WM40951   2.597   2.749   1.763 -0.3968 -0.1621  0.8913
12006PW       W40952  10.944   9.512  12.427  0.1450  0.2366  0.6156
12006PW      WP40953  10.993   9.444  12.540  0.4179 -0.3256  0.1840
12006PW      WM40954  10.840   9.586  12.370 -0.0850 -0.4931  0.0167
12007PW       W40955   7.607   0.282   3.000  0.3903 -0.1356 -0.4170
12007PW      WP40956   7.587   0.349   2.879 -0.2737 -0.2786 -0.4036
12007PW      WM40957   7.715   0.305   3.086  0.3804 -0.4272 -0.3191
12008PW       W40958   3.686   5.437  11.974  0.3773 -0.1717 -0.1528
12008PW      WP40959   3.681   5.557  11.903 -0.2088  0.0607  0.2424
12008PW      WM40960   3.584   5.497  12.049  0.5529 -0.3054  0.2051
12009PW       W40961   4.066   2.777   9.575 -0.1419  0.4506  0.1445
12009PW      WP40962   4.123   2.689   9.482 -0.1809  0.0783  0.4600
12009PW      WM40963   4.079   2.820   9.442  0.1550 -0.3454 -0.1143
12010PW       W40964   8.810   2.357   1.301  0.2081 -0.1250 -0.4377
12010PW      WP40965   8.894   2.342   1.412 -0.1393  0.1765 -0.1207
12010PW      WM40966   8.679   2.363   1.253  0.0137 -0.1347  0.0689
12011PW       W40967   6.009   3.928   0.915 -0.0964 -0.0800 -0.2635
12011PW      WP40968   5.877   3.893   0.944 -0.1156  0.2924  0.1566
12011PW      WM40969   5.982   4.029   0.823 -0.2408  0.1431  0.0152
12012PW       W40970   9.190   0.420  10.457 -0.5482  0.1099  0.2816
12012PW      WP40971   9.143   0.433  10.326  0.0343  0.0474  0.0516
12012PW      WM40972   9.311   0.428  10.527 -0.3565 -0.0203 -0.0266
12013PW       W40973  12.087   4.479   1.330 -0.7357  0.6144 -0.1219
12013PW      WP40974  12.053   4.396   1.222  0.2256  0.0110 -0.0299
12013PW      WM40975  12.120   4.565   1.225  0.9701 -0.1747 -0.4080
12014PW       W40976   9.012   6.168   2.314  0.1524 -0.1093  0.5114
12014PW      WP40977   8.902   6.198   2.234  0.4998 -0.4233 -0.1241
12014PW      WM40978   9.093   6.122   2.209  0.1904  0.3167  0.3474
12015PW       W40979   1.990  10.885  13.168 -0.1338  0.3781  0.1745
12015PW      WP40980   2.000  10.749  13.199 -0.3317  0.3106 -0.0435
12015PW      WM40981   2.032  10.978  13.264  0.5216  0.0579  0.2256
12016PW       W40982   4.656   0.272   2.219  0.2984  0.2708  0.1323
12016PW      WP40983   4.775   0.284   2.292  0.2315 -0.3253  0.3657
12016PW      WM40984   4.629   0.202   2.101 -0.2229  0.4949  0.1084
12017PW       W40985   3.747   4.769   4.916  0.1067  0.3875 -0.1784
12017PW      WP40986   3.780   4.862   5.015  0.2040 -0.2409  0.4121
12017PW      WM40987   3.874   4.756   4.859  0.2265  0.3593  0.0878
12018PW       W40988   9.668   0.035  10.629  0.4178 -0.6092 -0.1169
12018PW      WP40989   9.616   0.024  10.500  0.3764  0.1668 -0.1916
12018PW      WM40990   9.714   0.014  10.760  0.1615 -0.1444  0.0646
12019PW       W40991   4.233   1.638  10.398 -0.1486  0.1178  0.1570
12019PW      WP40992   4.318   1.529  10.418 -0.0714  0.1806  0.1736
12019PW      WM40993   4.240   1.633  10.537 -0.0491 -0.0957  0.1463
12020PW       W40994   5.916   3.892  10.582  0.2330 -0.0933  0.1930
12020PW      WP40995   5.905   4.031  10.570  0.3680 -0.0680  0.3393
12020PW      WM40996   5.840   3.874  10.466  0.4899 -0.4362  0.0687
12021PW       W40997   9.082   4.348   9.783  0.3585 -0.1275  0.1208
12021PW      WP40998   9.039   4.245   9.868  0.2105  0.2908  0.5804
12021PW      WM40999   9.116   4.465   9.715  0.5610 -0.1831  0.1218
12022PW       W41000  10.890   4.693  10.523  0.1112  0.0498 -0.0524
12022PW      WP41001  11.009   4.759  10.490  0.2442 -0.1972 -0.0819
12022PW      WM41002  10.938   4.817  10.566 -0.5191  0.4654 -0.4585
12023PW       W41003   1.760   9.999   1.247 -0.5185  0.1993  0.0740
12023PW      WP41004   1.861  10.008   1.343 -0.1415  0.3936 -0.3218
12023PW      WM41005   1.836  10.010   1.130 -0.1940 -0.1185  0.2455
12024PW       W41006   9.621   8.681   2.578 -0.0843  0.5105  0.3552
12024PW      WP41007   9.733   8.664   2.660 -0.0168  0.1703  0.2052
12024PW      WM41008   9.548   8.565   2.608  0.6037  0.0031  0.2055
12025PW       W41009  10.142   4.277   8.943 -0.4389  0.0986  0.1948
12025PW      WP41010  10.245   4.248   8.854 -0.0433  0.3058  0.5666
12025PW      WM41011  10.221   4.389   8.916  0.2680 -0.4513 -0.1779
12026PW       W41012   5.706   5.364  12.292  0.1536  0.0027 -0.3488
12026PW      WP41013   5.839   5.369  12.250  0.2371  0.5244 -0.0617
12026PW      WM41014   5.606   5.456  12.328 -0.0174 -0.2571 -0.1415
12027PW       W41015  11.132   2.606   9.779 -0.1199 -0.4761  0.0791
12027PW      WP41016  11.123   2.538   9.657  0.2091 -0.0478 -0.1989
12027PW      WM41017  11.076   2.555   9.661 -0.1204  0.2299 -0.2475
12028PW       W41018   8.097   3.295  10.085 -0.0969  0.0483 -0.1142
12028PW      WP41019   8.174   3.254   9.974 -0.1555  0.2162 -0.2179
12028PW      WM41020   8.018   3.227  10.178  0.1074  0.5331  0.4394
12029PW       W41021   5.583   5.870   4.441 -0.0484  0.0500  0.4674
12029PW      WP41022   5.507   5.911   4.330 -0.1535 -0.1828  0.4512
12029PW      WM41023   5.469   5.812   4.499 -0.0709  0.3636  0.7530
12030PW       W41024   2.397   7.701   9.892 -0.0027  0.2419 -0.2065
12030PW      WP41025   2.532   7.730   9.871  0.0010  0.3223 -0.0808
12030PW      WM41026   2.392   7.697  10.032 -0.1389  0.0088 -0.2151
12031PW       W41027   6.994  10.125   9.365 -0.6099  0.2402  0.1225
12031PW      WP41028   7.113  10.122   9.291 -0.7991 -0.0271 -0.1824
12031PW      WM41029   7.027  10.017   9.448 -0.7861  0.2341  0.1872
12032PW       W41030  11.808   4.379  12.197  0.6458  0.0942 -0.4693
12032PW      WP41031  11.790   4.343  12.331 -0.0874  0.3309 -0.4853
12032PW      WM41032  11.675   4.410  12.168  0.1250 -0.8020  0.5747
12033PW       W41033   0.883   8.516  -0.003  0.5157 -0.0969 -0.0405
12033PW      WP41034   0.904   8.438   0.112  0.1224 -0.1618 -0.0049
12033PW      WM41035   0.924   8.640   0.048 -0.0802  0.1740 -0.1702
12034PW       W41036   3.157   6.091  10.350  0.0371  0.2705 -0.3940
12034PW      WP41037   3.067   6.139  10.254 -0.3719  0.5578  0.1027
12034PW      WM41038   3.254   6.020  10.422 -0.0590  0.6598  0.1566
12035PW       W41039   3.718   9.590   3.882 -0.0533  0.0808 -0.4354
12035PW      WP41040   3.596   9.584   3.950  0.4060 -0.4432  0.4322
12035PW      WM41041   3.608   9.555   3.802 -0.3476 -0.1754  0.0564
12036PW       W41042   9.913  10.922   1.596  0.5536 -0.6800 -0.2571
12036PW      WP41043  10.044  10.970   1.607  0.3140 -0.0884  0.3130
12036PW      WM41044   9.828  10.890   1.702  0.0779  0.7501 -0.0948
12037PW       W41045  11.957   5.149   5.144  0.1364  0.3611  0.1845
12037PW      WP41046  11.890   5.084   5.040 -0.3767  0.4282  0.4563
12037PW      WM41047  11.888   5.259   5.196 -0.4535 -0.0002  0.2234
12038PW       W41048   8.267   8.590   4.055  0.1169  0.0718 -0.4902
12038PW      WP41049   8.398   8.612   4.101  0.1173 -0.2830 -0.3094
12038PW      WM41050   8.191   8.628   3.944 -0.2525 -0.2885 -0.3717
12039PW       W41051  11.327   5.302   9.041  0.0480  0.0817 -0.1100
12039PW      WP41052  11.429   5.218   9.087  0.1401  0.0575 -0.3472
12039PW      WM41053  11.436   5.289   9.127 -0.1210 -0.3281  0.0537
12040PW       W41054  10.677   8.408  10.427 -0.3943 -0.3790 -0.2164
12040PW      WP41055  10.768   8.461  10.335  0.0732 -0.1844  0.3319
12040PW      WM41056  10.645   8.544  10.416 -0.1286 -0.2831  0.1231
12041PW       W41057   8.754   9.506   2.831  0.1037 -0.1221 -0.0389
12041PW      WP41058   8.656   9.601   2.859  0.3411  0.1724 -0.1808
12041PW      WM41059   8.656   9.424   2.773  0.0924  0.1930 -0.4938
12042PW       W41060   5.415   2.074   8.429  0.1903 -0.4910  0.0527
12042PW      WP41061   5.308   2.050   8.343  0.0487  0.4177 -0.0796
12042PW      WM41062   5.356   2.104   8.553  0.0324  0.0798 -0.1435
12043PW       W41063   3.333  12.104   2.244 -0.4201 -0.2884  0.4398
12043PW      WP41064   3.457  12.123   2.181 -0.6286  0.3493  0.1746
12043PW      WM41065   3.439  12.051   2.318  0.2327 -0.0371 -0.2507
12044PW       W41066   2.375   2.631   9.527 -0.0138  0.0514 -0.2569
12044PW      WP41067   2.298   2.745   9.501 -0.2682 -0.0632 -0.0295
12044PW      WM41068   2.304   2.512   9.507 -0.3434  0.2520 -0.3109
12045PW       W41069   2.128   5.721   9.771 -0.2211  0.2911  0.5307
12045PW      WP41070   2.059   5.613   9.713  0.2307  0.1013  0.3164
12045PW      WM41071   2.109   5.776   9.898 -0.7229  0.0202  0.5868
12046PW       W41072   2.216   2.128   1.324  0.0709 -0.0629  0.2673
12046PW      WP41073   2.214   2.132   1.184 -0.2792  0.0678  0.2709
12046PW      WM41074   2.314   2.152   1.421  0.0910  0.4239  0.1390
12047PW       W41075   7.522   4.856  10.319  0.1143  0.5806  0.0475
12047PW      WP41076   7.538   4.801  10.192 -0.1714  0.2496  0.1502
12047PW      WM41077   7.559   4.958  10.408  0.3931  0.2218  0.3582
12048PW       W41078   4.970   7.238   3.107  0.0693 -0.0397 -0.0821
12048PW      WP41079   4.907   7.303   3.214 -0.0253 -0.3665  0.0676
12048PW      WM41080   5.018   7.128   3.179 -0.1431  0.1865  0.4271
12049PW       W41081   8.987   9.337  12.508 -0.3826 -0.1210 -0.0209
12049PW      WP41082   9.003   9.227  12.424 -0.0631 -0.6282  0.6567
12049PW      WM41083   9.030   9.448  12.582  0.1538  0.1234 -0.6531
12050PW       W41084   4.638   3.970   3.220  0.2018  0.2696 -0.2514
12050PW      WP41085   4.529   4.054   3.194  0.1227  0.1563 -0.2884
12050PW      WM41086   4.709   3.858   3.264  0.0381 -0.0167 -0.6831
12051PW       W41087   2.898  11.441   4.043 -0.1824 -0.5569 -0.0575
12051PW      WP41088   2.908  11.415   4.181  0.2834 -0.0543  0.0193
12051PW      WM41089   2.928  11.575   4.018 -0.2911 -0.5725 -0.2853
12052PW       W41090   6.107   6.727   1.595 -0.0489  0.2542 -0.0491
12052PW      WP41091   6.093   6.798   1.715 -0.1304  0.4210 -0.1545
12052PW      WM41092   6.113   6.658   1.716 -0.0853 -0.1108 -0.2499
12053PW       W41093   5.870   4.143   3.327 -0.2803 -0.4588 -0.0138
12053PW      WP41094   5.957   4.104   3.430 -0.2176 -0.5420 -0.0970
12053PW      WM41095   5.937   4.155   3.205  0.0184 -0.1917  0.1666
12054PW       W41096  11.116   3.411   5.098  0.1344 -0.0206  0.1236
12054PW      WP41097  11.097   3.322   5.204  0.0520 -0.0739  0.0645
12054PW      WM41098  11.032   3.351   5.004 -0.1855  0.3574  0.1554
12055PW       W41099   6.398   5.736  13.353  0.3189 -0.4022  0.2214
12055PW      WP41100   6.318   5.780  13.459  0.3652 -0.1327  0.1468
12055PW      WM41101   6.428   5.721  13.217 -0.1790 -0.4183  0.1052
12056PW       W41102   0.267   9.723   8.442 -0.1378 -0.2839 -0.0867
12056PW      WP41103   0.388   9.655   8.427 -0.2235 -0.5763  0.4147
12056PW      WM41104   0.279   9.797   8.560  0.1317 -0.7785  0.2135
12057PW       W41105   0.352   6.409   2.385  0.0654  0.1523  0.4369
12057PW      WP41106   0.230   6.475   2.364 -0.1047 -0.2895 -0.1074
12057PW      WM41107   0.384   6.323   2.279  0.0108  0.6920 -0.0436
12058PW       W41108  11.525  11.103   4.502  0.1317 -0.5619  0.2002
12058PW      WP41109  11.582  10.983   4.456  0.1225 -0.5511  0.1605
12058PW      WM41110  11.431  11.003   4.528 -0.2340 -0.2070  0.2841
12059PW       W41111   3.732   3.109  11.500  0.0657 -0.2912  0.2285
12059PW      WP41112   3.780   3.020  11.403 -0.2432 -0.3741  0.1448
12059PW      WM41113   3.726   3.249  11.500 -0.2402 -0.3008  0.1457
12060PW       W41114   1.104   4.327  11.491  0.2204  0.1266  0.4511
12060PW      WP41115   1.149   4.210  11.428  0.0947  0.1645  0.2883
12060PW      WM41116   1.147   4.447  11.434 -0.5822  0.0890 -0.3434
12061PW       W41117   7.897   0.579  11.779  0.3272  0.1111 -0.1101
12061PW      WP41118   7.894   0.491  11.888  0.1177  0.2132 -0.0308
12061PW      WM41119   7.808   0.686  11.762 -0.3345 -0.3665  0.1513
12062PW       W41120  11.074   5.067  10.822  0.0646  0.2212  0.0511
12062PW      WP41121  11.024   4.946  10.771  0.0626  0.2352  0.0195
12062PW      WM41122  11.198   5.077  10.886  0.2576  0.5049 -0.3425
12063PW       W41123   1.920   4.898   3.386  0.1442 -0.1070 -0.0279
12063PW      WP41124   2.019   4.860   3.477 -0.2707  0.0812  0.5324
12063PW      WM41125   1.827   4.815   3.449 -0.2527  0.3042 -0.0451
12064PW       W41126   9.465   4.886   3.619 -0.1832 -0.0660  0.1155
12064PW      WP41127   9.440   5.016   3.572 -0.0158 -0.1332 -0.1731
12064PW      WM41128   9.368   4.790   3.651  0.0154 -0.3569 -0.1267
12065PW       W41129   6.324   5.045   2.413 -0.1318 -0.1294  0.2363
12065PW      WP41130   6.312   5.125   2.298 -0.1803 -0.3315  0.0975
12065PW      WM41131   6.346   4.928   2.487  0.0831 -0.1440  0.1525
12066PW       W41132   3.282   6.105  12.662  0.0888  0.0978 -0.2534
12066PW      WP41133   3.330   6.174  12.550  0.2660  0.2018 -0.1151
12066PW      WM41134   3.332   5.978  12.635  0.3747  0.0692  0.3322
12067PW       W41135   8.430  11.173   8.802 -0.2319  0.0748  0.4445
12067PW      WP41136   8.322  11.125   8.879 -0.4360  0.2350  0.2622
12067PW      WM41137   8.361  11.294   8.798  0.0246  0.2208  0.3782
12068PW       W41138   5.399   6.645   2.655  0.4393 -0.1340 -0.5400
12068PW      WP41139   5.524   6.664   2.713  0.3770 -0.4636 -0.2863
12068PW      WM41140   5.341   6.538   2.585 -0.2865 -0.0027 -0.1859
12069PW       W41141   0.745  11.702   1.714  0.0472  0.1418  0.0146
12069PW      WP41142   0.771  11.726   1.578 -0.0659  0.0647 -0.0218
12069PW      WM41143   0.729  11.784   1.826 -0.1127 -0.1713  0.2271
12070PW       W41144   6.965   2.898  12.883  0.4180 -0.3622 -0.1792
12070PW      WP41145   6.951   2.900  13.023  0.3055  0.6610 -0.1663
12070PW      WM41146   6.963   3.030  12.837 -0.3934 -0.3663 -0.2320
12071PW       W41147   0.130   4.637  11.767 -0.1738  0.3497 -0.0845
12071PW      WP41148   0.138   4.684  11.635 -0.4276 -0.0817 -0.2652
12071PW      WM41149   0.068   4.718  11.864 -0.3727  0.0495  0.0462
12072PW       W41150  11.364   0.994   1.858 -0.4574  0.0207 -0.2206
12072PW      WP41151  11.401   0.864   1.821 -0.1474  0.0936 -0.1837
12072PW      WM41152  11.367   1.093   1.957  0.1746  0.0986 -0.2989
12073PW       W41153  11.145   6.523   4.326 -0.0654 -0.0265 -0.2538
12073PW      WP41154  11.207   6.554   4.205  0.1606  0.2394 -0.0757
12073PW      WM41155  11.235   6.424   4.283  0.3036  0.2132 -0.0583
12074PW       W41156   5.604   4.856   0.518 -0.2903  0.3693 -0.1887
12074PW      WP41157   5.470   4.882   0.485 -0.3526  0.2557 -0.0321
12074PW      WM41158   5.567   4.903   0.644 -0.3541  0.1834 -0.1371
12075PW       W41159   3.053   5.496  11.138 -0.1300 -0.0354  0.0411
12075PW      WP41160   3.105   5.367  11.158  0.1237 -0.0006 -0.3482
12075PW      WM41161   3.167   5.567  11.099 -0.0106 -0.1789  0.1236
12076PW       W41162   9.117   0.136   1.374 -0.1431  0.3858  0.4760
12076PW      WP41163   9.237   0.080   1.419 -0.0826  0.0413 -0.0535
12076PW      WM41164   9.127   0.207   1.253  0.0094  0.4268  0.5117
12077PW       W41165   5.936   7.350   3.443  0.0574  0.3580 -0.0308
12077PW      WP41166   5.956   7.307   3.311 -0.0894  0.0892  0.0317
12077PW      WM41167   5.871   7.452   3.372  0.4270  0.4206 -0.2883
12078PW       W41168   1.720  11.825   0.821  0.3280  0.0329  0.3384
12078PW      WP41169   1.619  11.746   0.876  0.2654 -0.0272  0.1401
12078PW      WM41170   1.648  11.945   0.825 -0.3582 -0.3517  0.3179
12079PW       W41171  11.501   3.736   1.088  0.3243  0.0714 -0.3609
12079PW      WP41172  11.454   3.846   1.014  0.5739  0.3910 -0.0659
12079PW      WM41173  11.639   3.755   1.101  0.3253 -0.2487  0.2821
12080PW       W41174   1.959   3.657  -0.031 -0.6275  0.3338 -0.4704
12080PW      WP41175   2.078   3.698   0.030 -0.4870 -0.3343 -0.2557
12080PW      WM41176   1.932   3.652   0.106 -0.5620 -0.1923 -0.4646
12081PW       W41177   6.926   5.724   1.812 -0.1844 -0.2700 -0.1465
12081PW      WP41178   6.984   5.621   1.887 -0.0255 -0.3428 -0.3659
12081PW      WM41179   7.028   5.811   1.772 -0.1920 -0.0915  0.2021
12082PW       W41180  10.262  10.409  10.019 -0.3934 -0.4390  0.0340
12082PW      WP41181  10.216  10.520   9.946  0.1303 -0.3120 -0.1221
12082PW      WM41182  10.370  10.336   9.968 -0.2895 -0.4951  0.3300
12083PW       W41183   9.888  10.324   8.186  0.0269 -0.2962  0.0567
12083PW      WP41184  10.022  10.355   8.161 -0.0182  0.2045  0.3768
12083PW      WM41185   9.881  10.287   8.321 -0.1846 -0.3148  0.0418
12084PW       W41186   7.332   5.063   0.148  0.3762  0.0655 -0.1868
12084PW      WP41187   7.436   5.063   0.241  0.3012  0.0362 -0.1013
12084PW      WM41188   7.232   5.033   0.241  0.6007 -0.2531 -0.0409
12085PW       W41189   3.821  10.778  11.207 -0.2851 -0.1416  0.4924
12085PW      WP41190   3.944  10.805  11.145 -0.5378 -0.1222 -0.0280
12085PW      WM41191   3.730  10.673  11.192 -0.3353 -0.0007 -0.5927
12086PW       W41192   8.488   3.085   0.878 -0.0781  0.2461  0.1673
12086PW      WP41193   8.516   2.970   0.952 -0.2054  0.0825 -0.0348
12086PW      WM41194   8.426   3.107   1.001 -0.4216  0.0937  0.0292
12087PW       W41195   4.843   6.362   0.934  0.1818  0.1843 -0.2234
12087PW      WP41196   4.840   6.412   1.065 -0.4679  0.0147 -0.1552
12087PW      WM41197   4.849   6.368   0.794  0.5973 -0.2123 -0.2332
12088PW       W41198   2.698   2.748   1.040 -0.0978  0.2115 -0.5241
12088PW      WP41199   2.758   2.741   0.913 -0.3798 -0.1933 -0.6438
12088PW      WM41200   2.564   2.772   1.072 -0.0735  0.3104 -0.4947
12089PW       W41201   9.502   9.650   8.715 -0.5213 -0.1385 -0.0419
12089PW      WP41202   9.495   9.584   8.592  0.3505  0.3593 -0.4004
12089PW      WM41203   9.625   9.607   8.766 -0.4253  0.3809  0.1918
12090PW       W41204   3.341   9.497  12.847  0.0731  0.0079 -0.0126
12090PW      WP41205   3.414   9.383  12.810 -0.0333  0.0484 -0.3653
12090PW      WM41206   3.205   9.500  12.880  0.0118  0.3912 -0.2635
12091PW       W41207   6.629  10.286   0.767 -0.2638 -0.0486  0.3541
12091PW      WP41208   6.523  10.378   0.767  0.0616  0.3421  0.1525
12091PW      WM41209   6.714  10.335   0.867  0.2811  0.0834 -0.1486
12092PW       W41210   4.803   7.522  10.573  0.5612  0.2439 -0.1942
12092PW      WP41211   4.899   7.427  10.609  0.1669 -0.0702  0.0857
12092PW      WM41212   4.765   7.650  10.614  0.1108 -0.0074  0.2282
12093PW       W41213   5.937  11.792   9.720 -0.1305 -0.0835  0.1289
12093PW      WP41214   6.021  11.903   9.741 -0.2855  0.0389  0.1114
12093PW      WM41215   6.000  11.787   9.595 -0.1771  0.0912  0.0959
12094PW       W41216   3.397   0.222  11.774 -0.3074  0.0625 -0.3924
12094PW      WP41217   3.511   0.301  11.755 -0.2123  0.0545  0.0745
12094PW      WM41218   3.381   0.122  11.677 -0.3341 -0.1699 -0.1536
12095PW       W41219   3.472   6.665   1.561 -0.1794  0.2127 -0.0033
12095PW      WP41220   3.606   6.630   1.580 -0.3232 -0.3820  0.0043
12095PW      WM41221   3.423   6.774   1.634 -0.0939  0.1360  0.1715
12096PW       W41222   2.375   3.604   2.787 -0.3107  0.2292 -0.2471
12096PW      WP41223   2.364   3.557   2.918 -0.3137  0.4981 -0.1483
12096PW      WM41224   2.357   3.719   2.864  0.2814 -0.1519  0.5298
12097PW       W41225  10.483  11.071   9.177  0.3041 -0.0453 -0.2901
12097PW      WP41226  10.359  11.113   9.126  0.1694 -0.2060 -0.1051
12097PW      WM41227  10.546  10.960   9.234  0.2549  0.0171 -0.1097
12098PW       W41228   2.663  10.248   5.551 -0.2787 -0.0670  0.4969
12098PW      WP41229   2.743  10.162   5.629  0.0893 -0.0209  0.1832
12098PW      WM41230   2.578  10.149   5.501  0.2497 -0.0782 -0.5156
12099PW       W41231  11.062   5.342   2.272  0.1087  0.0619 -0.0642
12099PW      WP41232  11.007   5.407   2.383 -0.0646  0.1008 -0.1712
12099PW      WM41233  11.078   5.456   2.192  0.3173  0.0650 -0.0202
12100PW       W41234   5.198  11.320   9.944 -0.2743 -0.0191  0.0327
12100PW      WP41235   5.314  11.242   9.948 -0.1284  0.1911 -0.0078
12100PW      WM41236   5.141  11.398   9.843 -0.1336  0.7743  0.5175
12101PW       W41237   4.651   9.224   1.205 -0.0331 -0.2904 -0.0313
12101PW      WP41238   4.674   9.271   1.335 -0.1795  0.1428 -0.1523
12101PW      WM41239   4.543   9.312   1.217 -0.0230 -0.2232 -0.3880
12102PW       W41240  11.639   7.313   2.117 -0.0845  0.2083 -0.0478
12102PW      WP41241  11.776   7.308   2.145 -0.0875 -0.4793 -0.0939
12102PW      WM41242  11.653   7.175   2.104 -0.3253  0.1412  0.3256
12103PW       W41243   5.934   3.455   1.518 -0.0842  0.3537 -0.0197
12103PW      WP41244   5.809   3.410   1.562 -0.2147  0.4407 -0.2870
12103PW      WM41245   5.858   3.355   1.456  0.0745  0.1237  0.1477
12104PW       W41246  11.418   7.975  10.749 -0.1054  0.2152 -0.1734
12104PW      WP41247  11.442   8.099  10.808  0.1393  0.1921 -0.2224
12104PW      WM41248  11.283   7.937  10.745 -0.1091  0.2460 -0.5258
12105PW       W41249   0.612  11.048   0.956  0.0098  0.3351 -0.0491
12105PW      WP41250   0.709  11.086   1.050 -0.3149  0.2651  0.3328
12105PW      WM41251   0.694  10.977   0.868 -0.0033  0.0247  0.1769
12106PW       W41252   7.507   6.124   2.385  0.5116 -0.5424 -0.0234
12106PW      WP41253   7.417   6.066   2.476  0.1317  0.2826  0.1760
12106PW      WM41254   7.611   6.080   2.303  0.4230 -0.4897 -0.1650
12107PW       W41255   8.861   4.366   2.145  0.4723  0.1502 -0.4154
12107PW      WP41256   8.825   4.330   2.276  0.0452  0.4618 -0.4367
12107PW      WM41257   8.806   4.283   2.046  0.0352 -0.1899  0.0797
12108PW       W41258   7.625   6.167  10.914 -0.1366 -0.0720 -0.2358
12108PW      WP41259   7.625   6.119  11.046  0.1408 -0.3051 -0.3136
12108PW      WM41260   7.537   6.274  10.928 -0.1609 -0.0788 -0.3344
12109PW       W41261  10.582   9.272  12.120  0.0287 -0.3268 -0.7304
12109PW      WP41262  10.512   9.158  12.080  0.0890 -0.6707  0.0517
12109PW      WM41263  10.516   9.265  12.243  0.2509 -0.1854 -0.6011
12110PW       W41264   4.444   6.630   0.536  0.1983 -0.0977  0.3264
12110PW      WP41265   4.319   6.581   0.577 -0.1306  0.3298 -0.1022
12110PW      WM41266   4.553   6.608   0.451  0.3127  0.5050  0.2956
12111PW       W41267  10.183   3.242   3.381 -0.1405 -0.1935  0.1956
12111PW      WP41268  10.275   3.328   3.442 -0.0016 -0.0216 -0.2390
12111PW      WM41269  10.181   3.159   3.268 -0.3135  0.5304 -0.3722
12112PW       W41270   8.342   4.494   2.448 -0.2574  0.2044 -0.1395
12112PW      WP41271   8.463   4.553   2.484 -0.0420 -0.2009 -0.1681
12112PW      WM41272   8.217   4.434   2.468 -0.2713  0.4777  0.8797
12113PW       W41273   4.281  12.168   1.438  0.0733 -0.0168  0.1218
12113PW      WP41274   4.337  12.079   1.345  0.2908  0.2478 -0.0062
12113PW      WM41275   4.172  12.116   1.367  0.1403 -0.3155  0.2283
12114PW       W41276   9.180   5.059   1.290  0.2823 -0.0453 -0.1430
12114PW      WP41277   9.189   4.928   1.337  0.1645  0.0927  0.2926
12114PW      WM41278   9.310   5.077   1.338 -0.0145  0.1499  0.6576
12115PW       W41279   5.099   2.244   0.777 -0.1079 -0.0801 -0.3544
12115PW      WP41280   5.061   2.110   0.784 -0.3625 -0.0035  0.9651
12115PW      WM41281   5.146   2.349   0.858 -0.1620 -0.3995  0.1060
12116PW       W41282   0.014   4.550   8.486 -0.1977 -0.3980 -0.0796
12116PW      WP41283   0.033   4.416   8.451  0.3490 -0.3719  0.0852
12116PW      WM41284   0.077   4.543   8.611 -0.1543  0.2866 -0.0443
12117PW       W41285   4.816   5.373   3.055  0.5613 -0.1932 -0.9423
12117PW      WP41286   4.911   5.277   3.016  0.7669 -0.3894 -0.0746
12117PW      WM41287   4.719   5.337   2.961 -0.1219  0.0078 -0.3604
12118PW       W41288   9.508  11.314   2.068 -0.1439  0.2084  0.2832
12118PW      WP41289   9.454  11.442   2.060 -0.5689  0.0263  0.1172
12118PW      WM41290   9.447  11.189   2.082  0.0948  0.0700  0.1183
12119PW       W41291   0.415   9.449   0.277 -0.1389  0.0662  0.0006
12119PW      WP41292   0.345   9.504   0.170 -0.4717 -0.0984  0.1271
12119PW      WM41293   0.427   9.319   0.227  0.5426  0.3004 -0.5288
12120PW       W41294   8.065   5.497   0.282  0.1637 -0.1292 -0.0898
12120PW      WP41295   8.064   5.547   0.151  0.4178  0.1210 -0.0011
12120PW      WM41296   8.051   5.580   0.393  0.6700 -0.3834  0.1827
12121PW       W41297   3.503   2.950  13.123  0.1116 -0.1511 -0.5590
12121PW      WP41298   3.453   2.819  13.124  0.2891 -0.2284 -0.0117
12121PW      WM41299   3.473   3.054  13.033 -0.5390  0.4476  0.2717
12122PW       W41300   5.362   5.204   9.762 -0.7832 -0.2267 -0.0441
12122PW      WP41301   5.322   5.208   9.897 -0.1589  0.4941  0.1598
12122PW      WM41302   5.323   5.286   9.656 -0.0687  0.4418  0.1627
12123PW       W41303   7.286   6.357   8.848  0.2663 -0.0174 -0.3405
12123PW      WP41304   7.195   6.459   8.816  0.0099 -0.1276  0.0157
12123PW      WM41305   7.175   6.299   8.909  0.3094  0.1535 -0.0923
12124PW       W41306   1.536   6.702  11.273  0.4246 -0.3507 -0.7195
12124PW      WP41307   1.601   6.797  11.192  0.1672  0.3359 -0.1733
12124PW      WM41308   1.417   6.712  11.200 -0.4955  0.2210  0.6474
12125PW       W41309   7.662   1.887   0.640  0.4543  0.2345 -0.1299
12125PW      WP41310   7.735   1.775   0.681  0.3940  0.3402  0.2881
12125PW      WM41311   7.529   1.872   0.597  0.2893  0.1008  0.3881
12126PW       W41312   2.446   6.158   0.023  0.4729  0.3773 -0.1436
12126PW      WP41313   2.405   6.228  -0.092  0.0398  0.1742 -0.1238
12126PW      WM41314   2.562   6.103   0.077  0.4750  0.3246 -0.2017
12127PW       W41315   0.911   4.918  11.885 -0.0505 -0.0376 -0.1325
12127PW      WP41316   1.021   4.934  11.801 -0.0929  0.1101 -0.1628
12127PW      WM41317   0.891   4.782  11.912 -0.0531 -0.0495 -0.1940
12128PW       W41318   1.795   4.546  11.890  0.2044  0.0566  0.0695
12128PW      WP41319   1.793   4.502  11.757 -0.1094  0.2737 -0.0020
12128PW      WM41320   1.753   4.461  11.994  0.5941 -0.1212  0.0894
12129PW       W41321   5.339   5.550   1.177 -0.1968  0.1492 -0.1943
12129PW      WP41322   5.402   5.469   1.082  0.2971  0.4983 -0.1783
12129PW      WM41323   5.375   5.599   1.303  0.0651 -0.1705 -0.1380
12130PW       W41324   0.434   8.465  11.249  0.8776 -0.0681 -0.0792
12130PW      WP41325   0.376   8.396  11.356  0.1293  0.4537 -0.1071
12130PW      WM41326   0.456   8.566  11.155 -0.0454  0.3472  0.0931
12131PW       W41327   3.087   8.723  11.232 -0.0694  0.2221 -0.2034
12131PW      WP41328   3.160   8.837  11.197  0.5418 -0.1501 -0.2006
12131PW      WM41329   3.032   8.660  11.120 -0.3000 -0.0979  0.0814
12132PW       W41330   2.235   3.692  11.082  0.1105 -0.1812  0.3938
12132PW      WP41331   2.164   3.634  10.976 -0.0243 -0.0240  0.3961
12132PW      WM41332   2.199   3.777  11.187 -0.5865 -0.3992  0.3531
12133PW       W41333  11.101  11.304   5.369  0.0138 -0.1586  0.2551
12133PW      WP41334  11.016  11.280   5.478 -0.1471 -0.3486  0.0917
12133PW      WM41335  11.173  11.418   5.333 -0.0831 -0.0084  0.5205
12134PW       W41336   5.000  10.529   4.591  0.1029 -0.1377  0.0267
12134PW      WP41337   4.995  10.389   4.577  0.0863 -0.1096 -0.2673
12134PW      WM41338   4.863  10.500   4.602  0.0657 -0.0179 -0.1115
12135PW       W41339   1.117   6.515  11.091 -0.2131 -0.5762 -0.1949
12135PW      WP41340   1.239   6.584  11.082 -0.4852  0.0605  0.4960
12135PW      WM41341   1.038   6.551  10.980 -0.2041  0.2020  0.0248
12136PW       W41342  11.372   9.014  12.987 -0.0828 -0.2155 -0.1270
12136PW      WP41343  11.450   9.125  12.952 -0.3051 -0.0048  0.0300
12136PW      WM41344  11.255   9.012  13.063 -0.0782 -0.5256 -0.1222
12137PW       W41345  10.825   2.381  12.226 -0.1512  0.1696  0.6212
12137PW      WP41346  10.800   2.502  12.161 -0.1022 -0.0814  0.1108
12137PW      WM41347  10.869   2.402  12.095 -0.1865 -0.8716  0.3971
12138PW       W41348   8.994  10.748   3.369  0.1495 -0.2488  0.1446
12138PW      WP41349   9.115  10.731   3.301  0.3725 -0.0822  0.4863
12138PW      WM41350   8.952  10.846   3.460  0.0428 -0.2268  0.0727
12139PW       W41351   7.561   7.871  12.129 -0.1444  0.3653  0.2392
12139PW      WP41352   7.490   7.952  12.219  0.2401  0.3843  0.5380
12139PW      WM41353   7.609   7.952  12.026 -0.0530  0.2686  0.2049
12140PW       W41354   2.366   9.882  11.941  0.0639 -0.0751  0.0080
12140PW      WP41355   2.280   9.869  11.832  0.1747 -0.0988 -0.0766
12140PW      WM41356   2.485   9.845  11.878  0.1351  0.1781 -0.0128
12141PW       W41357   4.452   7.607   9.432 -0.1075  0.0557  0.2841
12141PW      WP41358   4.573   7.573   9.493  0.1329 -0.1710 -0.2897
12141PW      WM41359   4.346   7.667   9.502 -0.3657 -0.2318  0.1514
12142PW       W41360   7.346   2.304   3.023 -0.4786  0.3581 -0.4962
12142PW      WP41361   7.439   2.383   2.956  0.1180  0.0083 -0.1244
12142PW      WM41362   7.212   2.344   3.030 -0.4854  0.2856  0.2903
12143PW       W41363   0.003   2.942  10.392 -0.3283  0.1868 -0.3490
12143PW      WP41364   0.002   2.852  10.285  0.0790 -0.0711 -0.1473
12143PW      WM41365   0.037   3.012  10.509 -0.0037  0.0711 -0.3696
12144PW       W41366   3.552   9.644  -0.030  0.2492  0.2863  0.3828
12144PW      WP41367   3.487   9.726   0.063 -0.0887  0.1581  0.2651
12144PW      WM41368   3.588   9.509  -0.015  0.3160  0.2147 -0.2721
12145PW       W41369   2.593   0.653   2.083  0.1089  0.3390 -0.1792
12145PW      WP41370   2.459   0.615   2.095  0.0794  0.3540 -0.4368
12145PW      WM41371   2.682   0.685   2.187  0.4824 -0.1299 -0.3353
12146PW       W41372   1.372   8.650   4.269  0.1860 -0.4583 -0.1817
12146PW      WP41373   1.262   8.708   4.204  0.0311 -0.3185  0.1914
12146PW      WM41374   1.474   8.731   4.320 -0.0926 -0.0099 -0.2990
12147PW       W41375  10.857  10.884   1.614  0.1841 -0.3123 -0.2946
12147PW      WP41376  10.896  10.777   1.532  0.5344 -0.2707 -0.1906
12147PW      WM41377  10.884  10.969   1.722 -0.1816 -0.3129 -0.1954
12148PW       W41378   5.751   5.927   9.625 -0.5485 -0.1340  0.2895
12148PW      WP41379   5.780   5.918   9.488 -0.4493  0.0719  0.2951
12148PW      WM41380   5.836   5.873   9.721  0.2633  0.5295  0.0043
12149PW       W41381   1.372   9.848   2.703 -0.4614  0.2442 -0.3120
12149PW      WP41382   1.325   9.814   2.575  0.1690 -0.5348 -0.3782
12149PW      WM41383   1.375   9.957   2.790  0.2778  0.0562 -0.0659
12150PW       W41384   0.580   7.594  13.294 -0.2518 -0.4321 -0.0275
12150PW      WP41385   0.531   7.673  13.189  0.6168 -0.1007 -0.2265
12150PW      WM41386   0.670   7.643  13.388 -0.0532  0.0337 -0.4382
12151PW       W41387   0.542   3.165  13.175 -0.0652  0.0065 -0.4349
12151PW      WP41388   0.523   3.033  13.134  0.8649 -0.4493  0.4169
12151PW      WM41389   0.450   3.197  13.276 -0.0720 -0.3546 -0.3222
12152PW       W41390   9.057   0.803   2.342 -0.0779 -0.2124 -0.1065
12152PW      WP41391   9.156   0.885   2.397 -0.4025  0.0536  0.0973
12152PW      WM41392   8.980   0.760   2.451 -0.3969  0.2224 -0.1499
12153PW       W41393  10.670   3.947   3.901  0.2034  0.1364  0.0614
12153PW      WP41394  10.754   3.981   4.008 -0.1822 -0.1145  0.4608
12153PW      WM41395  10.695   3.817   3.947  0.1378  0.1424  0.1151
12154PW       W41396   4.555  11.178   1.869  0.2465  0.4095  0.2059
12154PW      WP41397   4.547  11.085   1.973  0.1794 -0.0884 -0.2264
12154PW      WM41398   4.417  11.199   1.874  0.1906  0.0823  0.1527
12155PW       W41399   3.549   4.729  13.102 -0.0054 -0.3444 -0.2963
12155PW      WP41400   3.638   4.695  13.204 -0.3447  0.2159  0.2193
12155PW      WM41401   3.676   4.767  13.057  0.1665  0.1941  0.5394
12156PW       W41402  11.864   6.500   9.165 -0.5197 -0.3645 -0.0407
12156PW      WP41403  11.802   6.563   9.056 -0.0821 -0.6503 -0.4794
12156PW      WM41404  11.932   6.419   9.257 -0.1240 -0.2198 -0.1921
12157PW       W41405   3.650   7.506  10.600  0.3151 -0.3007  0.0999
12157PW      WP41406   3.537   7.563  10.541  0.5057 -0.0658 -0.0490
12157PW      WM41407   3.657   7.422  10.712  0.3502  0.0292  0.3528
12158PW       W41408   1.459   1.047   4.918 -0.0603 -0.3452  0.2748
12158PW      WP41409   1.335   1.103   4.883  0.0187 -0.5042 -0.3207
12158PW      WM41410   1.563   1.048   4.824  0.0414 -0.1035  0.3857
12159PW       W41411  10.381   7.607   1.198 -0.2855 -0.5902  0.4787
12159PW      WP41412  10.278   7.695   1.232 -0.2258 -0.1905 -0.2736
12159PW      WM41413  10.394   7.601   1.059  0.2756 -0.3317  0.5089
12160PW       W41414   8.959   7.832  11.070  0.4107 -0.0703  0.0846
12160PW      WP41415   8.972   7.930  11.168 -0.1319  0.1483 -0.0398
12160PW      WM41416   8.889   7.719  11.113  0.1600  0.1980  0.4059
12161PW       W41417   5.616   4.185  10.931 -0.2175 -0.0739  0.1326
12161PW      WP41418   5.551   4.304  10.896  0.0432  0.1089  0.2613
12161PW      WM41419   5.689   4.082  10.992  0.0973  0.1732  0.1821
12162PW       W41420   5.808   6.050  10.183 -0.2973  0.1141  0.0950
12162PW      WP41421   5.846   6.092  10.312 -0.3664 -0.2479  0.2366
12162PW      WM41422   5.901   5.957  10.135 -0.8949 -0.1253 -0.6863
12163PW       W41423   1.050   8.701  11.669  0.1889  0.1351 -0.0093
12163PW      WP41424   1.166   8.743  11.736  0.4115  0.4551 -0.5562
12163PW      WM41425   1.042   8.593  11.581 -0.0929  0.1151  0.0355
12164PW       W41426   2.182  11.894   5.006 -0.1965  0.1422  0.2146
12164PW      WP41427   2.213  11.759   4.987  0.0613  0.2639 -0.3302
12164PW      WM41428   2.090  11.895   4.901  0.2858  0.1961 -0.2313
12165PW       W41429   9.413   4.648  10.154  0.2875  0.2043  0.3694
12165PW      WP41430   9.415   4.514  10.113 -0.4278  0.1970  0.2914
12165PW      WM41431   9.275   4.668  10.148  0.2805  0.0807 -0.4097
12166PW       W41432  11.275   5.581   3.072 -0.3812  0.0416 -0.0772
12166PW      WP41433  11.314   5.523   2.951 -0.4534 -0.2816  0.0480
12166PW      WM41434  11.348   5.698   3.092 -0.3042 -0.0430  0.1607
12167PW       W41435   6.743   7.545   3.895  0.4231  0.2989  0.9971
12167PW      WP41436   6.852   7.528   3.809 -0.3954  0.4670 -0.1921
12167PW      WM41437   6.877   7.537   3.852  0.1019  0.1629 -0.1507
12168PW       W41438  11.168  12.095   9.514  0.2336 -0.1166 -0.4828
12168PW      WP41439  11.254  12.046   9.613 -0.3690 -0.1435  0.0592
12168PW      WM41440  11.134  12.050   9.642 -0.2995  0.1101 -0.5302
12169PW       W41441   3.341   4.940  10.464 -0.4404 -0.0155 -0.0896
12169PW      WP41442   3.298   4.807  10.455 -0.4346 -0.0313  0.0945
12169PW      WM41443   3.473   4.895  10.457 -0.2186  0.5627  0.0929
12170PW       W41444   0.768  11.710   9.078 -0.2966  0.3145  0.2133
12170PW      WP41445   0.898  11.748   9.042 -0.1699 -0.3359 -0.1076
12170PW      WM41446   0.739  11.799   8.974 -0.2331 -0.4837 -0.5482
12171PW       W41447   2.336  10.703   0.811  0.3631 -0.0959  0.4853
12171PW      WP41448   2.363  10.840   0.798  0.0511 -0.0406  0.3860
12171PW      WM41449   2.461  10.652   0.773  0.2166  0.0461 -0.2740
12172PW       W41450   7.900   7.027   0.958  0.3865 -0.2738 -0.0305
12172PW      WP41451   8.002   7.123   0.967 -0.0841  0.2781 -0.2907
12172PW      WM41452   7.996   6.925   0.945  0.4996 -0.1311 -0.4117
12173PW       W41453   2.270   6.578   2.474  0.2002  0.0130  0.0566
12173PW      WP41454   2.319   6.669   2.380 -0.3262  0.0933 -0.1544
12173PW      WM41455   2.153   6.501   2.484  0.5211 -0.4958  0.1068
12174PW       W41456   1.437   4.682  10.157  0.0797  0.1732  0.1208
12174PW      WP41457   1.348   4.656  10.052 -0.1538  0.2051  0.3075
12174PW      WM41458   1.339   4.710  10.062  0.0735 -0.1780  0.0165
12175PW       W41459  10.042   7.699  10.135 -0.3513 -0.1566  0.0372
12175PW      WP41460  10.151   7.647  10.064 -0.6970 -0.1321 -0.5403
12175PW      WM41461  10.108   7.800  10.206  0.0001 -0.3132 -0.0567
12176PW       W41462   3.492   2.171   2.832 -0.1555  0.2499 -0.3992
12176PW      WP41463   3.591   2.195   2.736  0.1477 -0.3745 -0.2667
12176PW      WM41464   3.506   2.310   2.830  0.2400  0.2327  0.1571
12177PW       W41465   3.588   1.959  10.144 -0.1920 -0.4264 -0.0348
12177PW      WP41466   3.688   1.972  10.047 -0.1580 -0.5926 -0.0243
12177PW      WM41467   3.501   2.068  10.154  0.1403 -0.1728  0.1913
12178PW       W41468   0.157   3.201   4.340 -0.2618  0.0225 -0.2990
12178PW      WP41469   0.252   3.285   4.280 -0.2183  0.0572 -0.1822
12178PW      WM41470   0.107   3.111   4.435 -0.4708  0.0887 -0.3455
12179PW       W41471   2.787  10.503  12.946 -0.0450  0.0823 -0.3975
12179PW      WP41472   2.661  10.528  12.891  0.0351 -0.3760 -0.8285
12179PW      WM41473   2.841  10.421  13.046  0.3131  0.8149  0.0524
12180PW       W41474   8.392   0.613   8.565  0.1438  0.1022 -0.0356
12180PW      WP41475   8.439   0.550   8.449 -0.3409 -0.5134  0.0746
12180PW      WM41476   8.393   0.529   8.677  0.5289  0.0261 -0.0902
12181PW       W41477   0.790   1.525   8.113 -0.2961 -0.3099  0.1666
12181PW      WP41478   0.758   1.457   8.231 -0.3185 -0.4323  0.0900
12181PW      WM41479   0.891   1.613   8.155 -0.2633 -0.1635 -0.2008
12182PW       W41480  12.093   2.674   0.597 -0.0728  0.0948  0.2975
12182PW      WP41481  12.165   2.771   0.667  0.1633  0.1486 -0.0081
12182PW      WM41482  12.048   2.553   0.543 -0.2111  0.2036  0.1620
12183PW       W41483   2.128   1.614   0.170 -0.3660 -0.1737 -0.2023
12183PW      WP41484   2.229   1.523   0.205 -0.0885 -0.0844 -0.7255
12183PW      WM41485   2.006   1.553   0.136 -0.0271 -0.6279 -0.6877
12184PW       W41486   7.510   3.263   9.877 -0.2226  0.1981  0.1946
12184PW      WP41487   7.531   3.397   9.843 -0.0307  0.1032 -0.0867
12184PW      WM41488   7.378   3.257   9.830 -0.1575  0.2963 -0.0088
12185PW       W41489   7.618   9.304   1.679 -0.1511  0.3501  0.2231
12185PW      WP41490   7.752   9.341   1.657 -0.1706  0.1640 -0.2828
12185PW      WM41491   7.603   9.214   1.784 -0.1492 -0.0232 -0.0862
12186PW       W41492   1.736   7.005  13.079 -0.2486 -0.0270  0.1717
12186PW      WP41493   1.743   7.141  13.112 -0.7720 -0.0369  0.3735
12186PW      WM41494   1.645   6.910  13.126  0.3405 -0.5591  0.3009
12187PW       W41495   9.996   0.830   1.770  0.4655 -0.3267  0.2469
12187PW      WP41496  10.057   0.955   1.780 -0.0390 -0.0258 -0.1913
12187PW      WM41497   9.946   0.860   1.897  0.1087  0.1798  0.0045
12188PW       W41498   7.923   7.773  10.086  0.0062  0.3483  0.2351
12188PW      WP41499   7.972   7.881  10.160 -0.0004  0.3594  0.2235
12188PW      WM41500   8.062   7.761  10.074 -0.0572 -0.2343 -0.1010
12189PW       W41501   9.371   7.823   3.756 -0.2823  0.0404  0.4279
12189PW      WP41502   9.494   7.790   3.815 -0.3117 -0.1340  0.3969
12189PW      WM41503   9.487   7.886   3.709 -0.2076 -0.3397  0.0598
12190PW       W41504   4.078   7.785   5.313  0.3179  0.0952 -0.1497
12190PW      WP41505   4.154   7.728   5.211 -0.0730 -0.6529 -0.0636
12190PW      WM41506   4.173   7.885   5.334  0.0540  0.2819  0.2326
12191PW       W41507   9.873   5.798   3.977  0.2399  0.2767  0.2390
12191PW      WP41508   9.872   5.813   3.838 -0.4617 -0.3239  0.1492
12191PW      WM41509   9.784   5.808   4.084 -0.0912  0.0088  0.0008
12192PW       W41510   6.156   8.701  -0.020 -0.0311 -0.0936  0.0166
12192PW      WP41511   6.053   8.763   0.051 -0.2693 -0.0730 -0.3335
12192PW      WM41512   6.229   8.787   0.062 -0.4357  0.3262 -0.0478
12193PW       W41513   2.026   8.215  12.538 -0.2656 -0.1233 -0.0401
12193PW      WP41514   2.134   8.202  12.449 -0.4193  0.3174 -0.3061
12193PW      WM41515   1.980   8.246  12.409  0.2304 -0.5923 -0.3569
12194PW       W41516   3.997   8.684  12.822  0.0632 -0.1119 -0.1682
12194PW      WP41517   3.937   8.810  12.836  0.1993 -0.0809  0.1851
12194PW      WM41518   4.078   8.590  12.887  0.0872 -0.0801 -0.1518
12195PW       W41519   3.040   4.541   4.563  0.0072 -0.4599 -0.7622
12195PW      WP41520   3.180   4.553   4.559  0.0046  0.2768 -0.0564
12195PW      WM41521   3.134   4.513   4.663 -0.2152  0.1790 -0.3439
12196PW       W41522   3.096   2.107   8.363  0.1004 -0.5063  0.1871
12196PW      WP41523   3.221   2.169   8.371  0.0887 -0.3262 -0.5952
12196PW      WM41524   3.178   2.068   8.469  0.0761 -0.1784  0.3311
12197PW       W41525   2.882   1.131  12.947  0.6371 -0.0097  0.0123
12197PW      WP41526   2.848   1.013  13.015  0.2195 -0.0164 -0.1946
12197PW      WM41527   2.901   1.222  13.052 -0.3545  0.0874  0.1536
12198PW       W41528   0.279   8.460   2.078  0.0914  0.5720  0.5447
12198PW      WP41529   0.235   8.442   1.946 -0.3781  0.2856  0.7279
12198PW      WM41530   0.319   8.357   2.163  0.2493 -0.0151 -0.1857
12199PW       W41531   8.748   5.804  11.429 -0.0926  0.0120  0.0270
12199PW      WP41532   8.778   5.741  11.551 -0.2542  0.4808  0.3234
12199PW      WM41533   8.839   5.900  11.472  0.3121 -0.2991 -0.1013
12200PW       W41534   2.194   0.754   1.836  0.6254 -0.2224  0.0660
12200PW      WP41535   2.266   0.873   1.856 -0.0687  0.2406 -0.0395
12200PW      WM41536   2.096   0.745   1.736  0.3162 -0.4353  0.3799
12201PW       W41537   8.442  11.841   0.675  0.0546  0.1581  0.1460
12201PW      WP41538   8.408  11.770   0.791 -0.0252  0.2292  0.1664
12201PW      WM41539   8.364  11.727   0.652 -0.1526  0.3154  0.0439
12202PW       W41540   7.396   7.831  11.666 -0.0048 -0.0307  0.0918
12202PW      WP41541   7.269   7.774  11.676  0.0636 -0.2178 -0.0690
12202PW      WM41542   7.458   7.956  11.668 -0.2963  0.1185  0.4242
12203PW       W41543   2.579   4.117   3.498  0.1607  0.1545  0.0299
12203PW      WP41544   2.529   4.113   3.367  0.9197 -0.1911 -0.2804
12203PW      WM41545   2.713   4.157   3.490  0.1406  0.1801 -0.2200
12204PW       W41546   4.310   1.433   4.102 -0.3791  0.3281 -0.2510
12204PW      WP41547   4.444   1.468   4.081 -0.2930  0.2790  0.1695
12204PW      WM41548   4.194   1.355   4.108 -0.4582  0.4632  0.2217
12205PW       W41549   0.841   3.028   9.494  0.2773  0.2209 -0.2161
12205PW      WP41550   0.881   3.053   9.362 -0.3311  0.1892 -0.4247
12205PW      WM41551   0.912   3.014   9.613 -0.1062  0.1384  0.0122
12206PW       W41552   6.997  10.919   3.048 -0.1405  0.0256  0.4157
12206PW      WP41553   6.861  10.893   3.068 -0.2520  0.1096 -0.1569
12206PW      WM41554   7.009  10.831   3.156 -0.3366  0.2573  0.6329
12207PW       W41555   8.245  11.610   1.968  0.2123 -0.0782  0.2488
12207PW      WP41556   8.271  11.524   1.861  0.6443  0.4142 -0.0695
12207PW      WM41557   8.190  11.734   1.932  0.1779 -0.1779 -0.0571
12208PW       W41558   1.134   1.455  12.954 -0.3153  0.4207 -0.2768
12208PW      WP41559   1.031   1.405  12.873  0.3865 -0.1160 -0.8989
12208PW      WM41560   1.053   1.494  12.847 -0.3568 -0.0584 -0.4305
12209PW       W41561   7.405   3.067  11.082  0.4876  0.6297  0.1504
12209PW      WP41562   7.519   3.055  11.162  0.3022  0.1316  0.3597
12209PW      WM41563   7.310   3.168  11.058 -0.0870  0.1857  0.4243
12210PW       W41564  10.707   5.738   4.532 -0.3825  0.3731 -0.2375
12210PW      WP41565  10.764   5.655   4.629 -0.1502  0.3255 -0.4095
12210PW      WM41566  10.745   5.748   4.398 -0.1231 -0.4545 -0.2569
12211PW       W41567   1.319   2.640   0.789  0.2955  0.0339 -0.1689
12211PW      WP41568   1.242   2.756   0.804  0.1011 -0.0924 -0.1658
12211PW      WM41569   1.339   2.516   0.853  0.0223  0.0172 -0.1108
12212PW       W41570   8.352   5.139   4.771  0.2003  0.0968  0.1496
12212PW      WP41571   8.476   5.088   4.811  0.0586 -0.3266  0.0807
12212PW      WM41572   8.307   5.068   4.659 -0.2577  0.4336  0.1082
12213PW       W41573   4.558   0.872  10.883  0.1360  0.0790  0.0330
12213PW      WP41574   4.549   1.010  10.863 -0.0434  0.0475 -0.1174
12213PW      WM41575   4.593   0.761  10.806 -0.2349  0.0569 -0.1151
12214PW       W41576   3.730   3.678   3.370  0.4282  0.1191 -0.1577
12214PW      WP41577   3.618   3.598   3.393  0.4087  0.1542 -0.1284
12214PW      WM41578   3.799   3.569   3.317  0.0190 -0.4332  0.3757
12215PW       W41579   3.955   8.654   0.419 -0.0684 -0.1291 -0.2262
12215PW      WP41580   4.055   8.720   0.491 -0.4416  0.0401  0.1639
12215PW      WM41581   3.937   8.602   0.290 -0.2475 -0.3817 -0.1031
12216PW       W41582   8.047   5.110  10.958 -0.0007 -0.3015  0.1123
12216PW      WP41583   8.052   4.970  10.954 -0.5310 -0.3275 -0.3267
12216PW      WM41584   7.922   5.132  11.017 -0.0765  0.1957 -0.2083
12217PW       W41585   4.189   7.826  11.617  0.4999  0.0064  0.0879
12217PW      WP41586   4.212   7.964  11.620  0.0029  0.1283 -0.5218
12217PW      WM41587   4.126   7.748  11.715  0.5872  0.1108  0.2293
12218PW       W41588   7.825   2.872   9.712 -0.0295 -0.5951 -0.2278
12218PW      WP41589   7.892   2.933   9.605 -0.1987 -0.2211 -0.1293
12218PW      WM41590   7.922   2.852   9.811 -0.2444 -0.1353  0.0948
12219PW       W41591  11.890   0.244  12.454  0.3509  0.0736 -0.1411
12219PW      WP41592  11.838   0.216  12.327 -0.2545 -0.0203  0.1106
12219PW      WM41593  11.794   0.161  12.396  0.2873 -0.1413  0.2580
12220PW       W41594   7.419   5.322   1.013  0.2991  0.0376  0.1696
12220PW      WP41595   7.466   5.278   0.888 -0.0317  0.1578 -0.0042
12220PW      WM41596   7.463   5.202   1.071 -0.6170 -0.2907  0.2643
12221PW       W41597   5.913   9.744   0.378 -0.0972  0.0123  0.0328
12221PW      WP41598   5.816   9.761   0.278  0.3266 -0.2569 -0.4527
12221PW      WM41599   5.878   9.825   0.487 -0.2165  0.0546 -0.0360
12222PW       W41600   8.898   1.210  11.860  0.0506  0.3055  0.1288
12222PW      WP41601   9.022   1.274  11.844  0.4554 -0.4599 -0.0679
12222PW      WM41602   8.818   1.316  11.904  0.1542  0.4418 -0.0019
12223PW       W41603   6.502   6.353   5.645  0.0067 -0.0890  0.1286
12223PW      WP41604   6.541   6.408   5.522  0.4058  0.0802  0.3225
12223PW      WM41605   6.590   6.452   5.689  0.0627  0.1224 -0.4112
12224PW       W41606   9.082   4.176   1.538  0.1764 -0.2903 -0.0082
12224PW      WP41607   8.967   4.224   1.601  0.1505  0.4870 -0.5664
12224PW      WM41608   9.215   4.219   1.548  0.1004 -0.0546  0.0097
12225PW       W41609   7.631   2.164  12.761  0.1769  0.0321  0.0056
12225PW      WP41610   7.510   2.175  12.692  0.4658  0.1013 -0.5174
12225PW      WM41611   7.694   2.285  12.732  0.2585 -0.0228 -0.0500
12226PW       W41612   4.119   4.217  12.419 -0.6747 -0.0530  0.1490
12226PW      WP41613   4.020   4.160  12.339 -0.2320 -0.1493 -0.3590
12226PW      WM41614   4.205   4.149  12.507 -0.2234 -0.1054 -0.3090
12227PW       W41615   7.973   9.581   3.491 -0.1451  0.0806 -0.1010
12227PW      WP41616   8.048   9.531   3.597 -0.0445  0.0959 -0.1640
12227PW      WM41617   7.934   9.680   3.582  0.1116  0.0192  0.0793
12228PW       W41618   7.280   3.671   8.832 -0.1423  0.1156 -0.0429
12228PW      WP41619   7.206   3.782   8.874  0.6941  0.5317  0.4614
12228PW      WM41620   7.408   3.618   8.853 -0.1453  0.1165 -0.0232
12229PW       W41621   7.459   3.675   3.865  0.2642 -0.0683 -0.0211
12229PW      WP41622   7.524   3.578   3.788 -0.0648  0.1266 -0.5724
12229PW      WM41623   7.498   3.541   3.869  0.2987 -0.0555  0.1300
12230PW       W41624   8.002   1.392  11.026 -0.1280  0.3490  0.1793
12230PW      WP41625   7.995   1.293  11.125 -0.2333  0.0026 -0.1639
12230PW      WM41626   7.980   1.375  10.889 -0.2505  0.2450  0.2114
12231PW       W41627   3.317   7.360   3.595  0.1420  0.2180 -0.6013
12231PW      WP41628   3.324   7.222   3.574 -0.5075  0.0401  0.1276
12231PW      WM41629   3.451   7.383   3.631  0.0670 -0.1077 -0.0540
12232PW       W41630   7.584   0.251   8.647 -0.0182  0.1575 -0.0361
12232PW      WP41631   7.482   0.285   8.738 -0.3044 -0.2608 -0.1847
12232PW      WM41632   7.661   0.248   8.764  0.4571  0.3586 -0.3299
12233PW       W41633   6.823   9.389  10.007  0.0927  0.0461  0.2079
12233PW      WP41634   6.874   9.509   9.955 -0.1775  0.0781  0.0089
12233PW      WM41635   6.857   9.391  10.143  0.1322 -0.3294  0.2090
12234PW       W41636   8.211   4.909   9.656  0.3502 -0.0260  0.4085
12234PW      WP41637   8.100   4.970   9.716  0.0476  0.0447 -0.1843
12234PW      WM41638   8.259   5.039   9.670  0.0124  0.1189  0.2720
12235PW       W41639   9.563   2.714   1.950  0.3726  0.3368  0.3408
12235PW      WP41640   9.507   2.796   1.850  0.1780 -0.4120 -0.2175
12235PW      WM41641   9.618   2.585   1.952  0.1890  0.2563  0.3315
12236PW       W41642   0.310   9.336   1.281  0.0346 -0.0185 -0.3657
12236PW      WP41643   0.404   9.338   1.384  0.0976  0.0795 -0.4246
12236PW      WM41644   0.240   9.217   1.306  0.2549 -0.0647  0.0744
12237PW       W41645   5.000   0.795   1.501  0.2344  0.0447 -0.1193
12237PW      WP41646   4.918   0.682   1.497  0.2211  0.0418  0.1659
12237PW      WM41647   5.073   0.692   1.561 -0.0477 -0.1003 -0.0162
12238PW       W41648   7.844   1.678  12.482  0.3197 -0.0179  0.0156
12238PW      WP41649   7.902   1.609  12.375  0.2457 -0.2156  0.1002
12238PW      WM41650   7.827   1.622  12.610 -0.3554 -0.1493 -0.1130
12239PW       W41651   1.398  12.115   0.690  0.2502 -0.0984  0.5122
12239PW      WP41652   1.454  11.990   0.720  0.4455 -0.1305  0.0504
12239PW      WM41653   1.514  12.182   0.733  0.2336  0.1836  0.1410
12240PW       W41654   9.329   2.499   9.409  0.1296  0.1432 -0.0025
12240PW      WP41655   9.425   2.435   9.487  0.1497  0.1708 -0.0043
12240PW      WM41656   9.289   2.558   9.288  0.0400 -0.2959 -0.1959
12241PW       W41657   9.851   5.643   1.449 -0.0064  0.2313 -0.4225
12241PW      WP41658   9.854   5.755   1.365  0.2244  0.3542 -0.2567
12241PW      WM41659   9.939   5.601   1.349 -0.2977 -0.2037 -0.5085
12242PW       W41660  10.684   9.101   0.216  0.2336  0.1501 -0.1490
12242PW      WP41661  10.616   9.171   0.116 -0.2135  0.1951  0.1714
12242PW      WM41662  10.813   9.053   0.240 -0.0106 -0.3753  0.2265
12243PW       W41663   3.548   0.387   9.610  0.0477  0.1274  0.3373
12243PW      WP41664   3.551   0.348   9.476  0.3169  0.5645  0.2021
12243PW      WM41665   3.577   0.512   9.552  0.2183 -0.0912 -0.0673
12244PW       W41666   2.515  10.942   9.018 -0.4357 -0.6676  0.2984
12244PW      WP41667   2.492  10.998   9.144  0.2594 -0.7683  0.4878
12244PW      WM41668   2.557  10.904   8.890 -0.2147 -0.3149  0.2627
12245PW       W41669   6.046   6.059  12.083  0.0837  0.0133  0.1450
12245PW      WP41670   6.018   6.046  12.220  0.1985 -0.3978  0.1386
12245PW      WM41671   6.063   6.090  11.948 -0.1804  0.0526  0.1194
12246PW       W41672   9.036   5.913   5.338 -0.1741  0.1146 -0.2027
12246PW      WP41673   9.099   5.788   5.346 -0.1137  0.1514 -0.0699
12246PW      WM41674   9.074   6.014   5.249  0.0304  0.1746 -0.0511
12247PW       W41675   2.684  11.592   0.682  0.3344  0.1880 -0.1208
12247PW      WP41676   2.592  11.622   0.581  0.5157 -0.0716 -0.3724
12247PW      WM41677   2.633  11.462   0.675 -0.2167  0.3560  0.4082
12248PW       W41678   0.808  10.293   9.075  0.0683  0.4326 -0.5581
12248PW      WP41679   0.674  10.291   9.036 -0.1333  0.0611  0.0824
12248PW      WM41680   0.934  10.253   9.029  0.2434  0.3792 -0.0576
12249PW       W41681   9.848   8.193   4.399  0.1293 -0.6999  0.0252
12249PW      WP41682   9.825   8.158   4.533  0.3650 -0.2517  0.1902
12249PW      WM41683   9.719   8.247   4.392  0.6146  0.6032 -0.1832
12250PW       W41684  11.553   9.277   9.992 -0.3150 -0.4804  0.0025
12250PW      WP41685  11.635   9.272  10.105 -0.1119  0.4736 -0.0659
12250PW      WM41686  11.550   9.304   9.855  0.2186 -0.2777  0.0192
12251PW       W41687   8.849   7.953   1.404  0.2075 -0.1011  0.3510
12251PW      WP41688   8.825   8.008   1.530 -0.2435  0.0465  0.2088
12251PW      WM41689   8.881   7.966   1.268 -0.4911  0.3235  0.2053
12252PW       W41690   7.450   7.930   4.912 -0.2017  0.3397 -0.2579
12252PW      WP41691   7.342   7.996   4.972 -0.1367  0.0747  0.1703
12252PW      WM41692   7.550   7.948   4.815  0.1751  0.2735  0.1032
12253PW       W41693   0.834   0.910  12.193 -0.1497  0.1955 -0.0260
12253PW      WP41694   0.846   0.784  12.133 -0.1418  0.0364  0.3016
12253PW      WM41695   0.859   1.014  12.283 -0.7967  0.2967  0.0551
12254PW       W41696  10.862   1.126  10.707  0.0910 -0.5481 -0.6124
12254PW      WP41697  10.956   1.061  10.788  0.2460  0.2559 -0.0818
12254PW      WM41698  10.818   1.247  10.653 -0.2107 -0.4004 -0.0807
12255PW       W41699   3.933   3.529   2.969 -0.2147  0.0076  0.7047
12255PW      WP41700   3.793   3.528   2.955 -0.1699 -0.4360  0.0938
12255PW      WM41701   4.037   3.614   2.929 -0.6481  0.2135 -0.0952
12256PW       W41702   7.366   9.684  12.767  0.1440  0.2060 -0.4710
12256PW      WP41703   7.228   9.702  12.780  0.1799  0.2411 -0.0727
12256PW      WM41704   7.432   9.806  12.783  0.0977  0.1770 -0.0038
12257PW       W41705   7.598   9.963   0.020  0.0252 -0.1282 -0.2765
12257PW      WP41706   7.470   9.949  -0.036 -0.2659 -0.0578  0.3254
12257PW      WM41707   7.690   9.879   0.083  0.2409  0.0554 -0.3385
12258PW       W41708   5.077   9.650   1.802 -0.1852 -0.0803 -0.2721
12258PW      WP41709   5.177   9.577   1.737 -0.0979 -0.4750  0.2715
12258PW      WM41710   5.077   9.646   1.942  0.0560  0.2436 -0.2596
12259PW       W41711   3.680   5.784  10.335 -0.0150 -0.1844 -0.2193
12259PW      WP41712   3.688   5.815  10.471 -0.2605 -0.1114 -0.2199
12259PW      WM41713   3.564   5.832  10.272 -0.4740 -0.4202  0.3932
12260PW       W41714   3.810   0.089   2.753  0.1015  0.2830  0.2176
12260PW      WP41715   3.914   0.182   2.749  0.1899  0.1748 -0.4110
12260PW      WM41716   3.715   0.191   2.736  0.0588  0.1853 -0.1902
12261PW       W41717  10.421  10.150  11.605 -0.1399 -0.2496 -0.4033
12261PW      WP41718  10.457  10.039  11.682 -0.1825 -0.1167 -0.1867
12261PW      WM41719  10.282  10.157  11.618 -0.1339 -0.4743 -0.1924
12262PW       W41720  10.962  11.634   9.647  0.1781 -0.0901  0.0084
12262PW      WP41721  10.930  11.732   9.741  0.0611 -0.2303  0.1175
12262PW      WM41722  10.848  11.574   9.702  0.0366  0.1078 -0.0649
12263PW       W41723   9.804   1.573  11.682  0.1117  0.0571  0.1912
12263PW      WP41724   9.854   1.704  11.687 -0.3126  0.2210  0.6266
12263PW      WM41725   9.738   1.630  11.573 -0.4192 -0.1825  0.3701
12264PW       W41726   1.933   9.655   9.232  0.0266 -0.2325  0.1558
12264PW      WP41727   1.958   9.625   9.098  0.0469  0.1065  0.0782
12264PW      WM41728   1.824   9.600   9.300 -0.1964  0.2455  0.2078
12265PW       W41729   6.925   1.345   3.175 -0.0089  0.2406  0.0185
12265PW      WP41730   6.869   1.368   3.301 -0.1948  0.1992 -0.0552
12265PW      WM41731   7.031   1.284   3.243 -0.3799 -0.2448  0.1875
12266PW       W41732   5.854   7.846   3.361  0.1702  0.3228  0.3914
12266PW      WP41733   5.858   7.707   3.378  0.7873  0.3337  0.4474
12266PW      WM41734   5.759   7.757   3.308  0.2559  0.3052  0.2658
12267PW       W41735   5.250   6.615   9.327 -0.4327  0.0969 -0.0831
12267PW      WP41736   5.284   6.519   9.423 -0.2315  0.4062  0.1655
12267PW      WM41737   5.258   6.645   9.191  0.1344 -0.1181 -0.1089
12268PW       W41738   3.183   7.689   1.417 -0.2433  0.0561 -0.0973
12268PW      WP41739   3.276   7.671   1.315  0.1876  0.4163  0.2118
12268PW      WM41740   3.228   7.562   1.378  0.0208  0.1047  0.0375
12269PW       W41741   5.887   0.794   0.051 -0.0503  0.0987 -0.1254
12269PW      WP41742   5.928   0.661   0.033  0.5808  0.1797  0.5173
12269PW      WM41743   5.908   0.842  -0.079 -0.5659 -0.2147 -0.3412
12270PW       W41744   1.095  10.043   9.412  0.0477 -0.3751  0.4514
12270PW      WP41745   1.012  10.033   9.300  0.4092  0.7645  0.0028
12270PW      WM41746   1.200   9.998   9.331 -0.3761 -0.1204 -0.2832
12271PW       W41747  11.173  12.032   5.121  0.1697  0.3611 -0.3992
12271PW      WP41748  11.283  11.992   5.198  0.0582  0.1729 -0.3334
12271PW      WM41749  11.068  12.006   5.032 -0.0407 -0.3721  0.0227
12272PW       W41750   2.438   3.885  -0.021  0.1116 -0.5518  0.0109
12272PW      WP41751   2.496   4.010   0.004 -0.3555 -0.2875 -0.1811
12272PW      WM41752   2.374   3.821   0.087 -0.0053 -0.6266 -0.1010
12273PW       W41753  10.470   4.414   2.015 -0.1382  0.2214 -0.2899
12273PW      WP41754  10.456   4.338   1.898  0.4175 -0.0207 -0.2141
12273PW      WM41755  10.342   4.373   2.055 -0.1162  0.1342 -0.3083
12274PW       W41756   6.000   5.974  10.600 -0.0629  0.5296 -0.0944
12274PW      WP41757   6.027   6.092  10.671  0.0051  0.3826  0.1295
12274PW      WM41758   6.077   5.996  10.715 -0.1965 -0.3606  0.2053
12275PW       W41759   3.111   6.466   1.215 -0.2397  0.5270 -0.1096
12275PW      WP41760   3.189   6.442   1.101  0.4091 -0.0445  0.4056
12275PW      WM41761   3.044   6.517   1.327 -0.0296 -0.0766  0.3187
12276PW       W41762   8.058  10.575  11.765 -0.1461 -0.0493 -0.0236
12276PW      WP41763   8.154  10.660  11.822  0.1542 -0.4866  0.1461
12276PW      WM41764   8.093  10.622  11.637  0.1140 -0.0562  0.0419
12277PW       W41765   5.690   9.030   8.450 -0.0964  0.2167 -0.5217
12277PW      WP41766   5.702   8.903   8.508 -0.4396  0.3146 -0.2126
12277PW      WM41767   5.553   9.050   8.468 -0.0823 -0.1212  0.1592
12278PW       W41768   5.162   3.333   3.778 -0.0570  0.4079 -0.0065
12278PW      WP41769   5.192   3.387   3.904 -0.2246  0.0681  0.1885
12278PW      WM41770   5.066   3.266   3.701  0.4240  0.0436 -0.3129
12279PW       W41771   4.357   7.060   9.536 -0.1794 -0.5608 -0.2186
12279PW      WP41772   4.227   7.024   9.574 -0.2326 -0.0761  0.1175
12279PW      WM41773   4.461   7.042   9.627  0.3317 -0.3703 -0.7370
12280PW       W41774   4.452  10.940   2.268  0.0511  0.5820 -0.0943
12280PW      WP41775   4.569  10.863   2.267 -0.2492  0.0993 -0.4172
12280PW      WM41776   4.458  11.013   2.149  0.1651  0.3996 -0.2033
12281PW       W41777   5.952   0.823   4.611 -0.1819 -0.2764  0.1956
12281PW      WP41778   5.902   0.805   4.481 -0.0679 -0.0903  0.1236
12281PW      WM41779   5.976   0.944   4.678 -0.0697 -0.1150 -0.1206
12282PW       W41780   2.442   4.823   9.263  0.1957 -0.2024  0.0439
12282PW      WP41781   2.416   4.691   9.303 -0.1186 -0.1510  0.0160
12282PW      WM41782   2.465   4.837   9.400  0.0023  0.0277  0.0549
12283PW       W41783   7.141   0.781  11.862  0.0772  0.2737  0.0464
12283PW      WP41784   7.194   0.781  11.733  0.9176 -0.6418  0.3295
12283PW      WM41785   7.031   0.868  11.874  0.0091  0.2542 -0.3613
12284PW       W41786   9.388   0.520   3.205 -0.3932 -0.2309 -0.0533
12284PW      WP41787   9.410   0.655   3.174  0.1706 -0.2873  0.0452
12284PW      WM41788   9.444   0.397   3.166  0.5549  0.1209  0.0563
12285PW       W41789   2.108   5.539   8.845  0.1812  0.1254  0.3331
12285PW      WP41790   2.197   5.577   8.744  0.0500  0.1619  0.2297
12285PW      WM41791   2.116   5.678   8.830 -0.5233  0.1215 -0.4842
12286PW       W41792   3.199  10.963   1.397 -0.1031 -0.4194 -0.1775
12286PW      WP41793   3.266  10.969   1.520  0.1093  0.0880 -0.3049
12286PW      WM41794   3.319  10.929   1.334  0.1425  0.3547 -0.1774
12287PW       W41795   8.996   6.172  11.680 -0.1859  0.5121 -0.4675
12287PW      WP41796   9.082   6.126  11.579  0.0817  0.3707 -0.1838
12287PW      WM41797   8.989   6.238  11.803  0.1995  0.1611 -0.2468
12288PW       W41798   5.056   5.121   8.265  0.3808  0.2275 -0.6211
12288PW      WP41799   5.156   5.213   8.300  0.2964  0.0934  0.0346
12288PW      WM41800   4.951   5.111   8.357  0.4019 -0.2303 -0.6375
12289PW       W41801   7.135   3.614   3.494  0.3024 -0.0373 -0.0466
12289PW      WP41802   7.177   3.735   3.551 -0.3550  0.2045 -0.0372
12289PW      WM41803   7.108   3.710   3.396 -0.2890  0.2037  0.3213
12290PW       W41804   4.355   9.714   0.576 -0.0550 -0.0534  0.0716
12290PW      WP41805   4.378   9.702   0.713 -0.6223  0.1670  0.1960
12290PW      WM41806   4.295   9.840   0.584  0.3650  0.1770 -0.1809
12291PW       W41807   8.051   4.933   5.110  0.2965  0.0667  0.6497
12291PW      WP41808   7.935   4.854   5.121  0.4590 -0.2719  0.1419
12291PW      WM41809   7.979   5.052   5.126  0.3289  0.1839  0.0330
12292PW       W41810   3.636   3.758   0.669  0.2194  0.4410  0.4352
12292PW      WP41811   3.764   3.726   0.718  0.3118  0.7572  0.4107
12292PW      WM41812   3.764   3.776   0.615  0.1329  0.1083  0.1024
12293PW       W41813   7.672   8.978  12.340 -0.2492  0.1240  0.2228
12293PW      WP41814   7.772   9.003  12.244 -0.2392  0.1273  0.2341
12293PW      WM41815   7.664   8.844  12.378  0.7752 -0.0912 -0.1528
12294PW       W41816  10.194   6.659   2.880 -0.3040 -0.3439 -0.0088
12294PW      WP41817  10.251   6.532   2.866  0.3559 -0.0625 -0.0745
12294PW      WM41818  10.116   6.710   2.985  0.3592 -0.1282  0.4126
12295PW       W41819   3.324  10.310   0.148 -0.1957 -0.2499  0.1018
12295PW      WP41820   3.372  10.257   0.028  0.0741  0.3964 -0.0953
12295PW      WM41821   3.232  10.414   0.163  0.0009 -0.0697  0.0933
12296PW       W41822  12.064   2.625  10.048 -0.3411  0.1081 -0.2513
12296PW      WP41823  12.142   2.511  10.027  0.2589  0.3339  0.5148
12296PW      WM41824  12.106   2.733  10.127 -0.2106 -0.3064  0.2696
12297PW       W41825  12.125  12.029   0.584 -0.2100  0.5094  0.0289
12297PW      WP41826  12.018  12.038   0.495 -0.5331 -0.2403  0.3006
12297PW      WM41827  12.111  12.094   0.708 -0.1414  0.1836  0.2130
12298PW       W41828   7.753   5.804   9.287  0.1060  0.1062 -0.1695
12298PW      WP41829   7.681   5.695   9.337 -0.0259  0.2349 -0.0718
12298PW      WM41830   7.780   5.713   9.185  0.0702  0.0067 -0.0908
12299PW       W41831   4.049   1.554   9.530 -0.1470  0.0581 -0.2184
12299PW      WP41832   3.947   1.647   9.551 -0.2266 -0.0061 -0.3188
12299PW      WM41833   4.010   1.505   9.656 -0.4458 -0.1697 -0.3929
12300PW       W41834   5.189   9.832  11.625  0.3363  0.3089 -0.1498
12300PW      WP41835   5.174   9.879  11.494  0.5697  0.2615 -0.1953
12300PW      WM41836   5.323   9.849  11.663  0.3001 -0.1132  0.2042
12301PW       W41837   6.596   2.654  11.738  0.0505  0.0318 -0.2411
12301PW      WP41838   6.729   2.612  11.751 -0.0265 -0.0355  0.5531
12301PW      WM41839   6.563   2.730  11.625 -0.1012  0.0179 -0.2070
12302PW       W41840   9.457   8.346   5.203 -0.2250 -0.2506  0.0162
12302PW      WP41841   9.368   8.445   5.247  0.2472 -0.0716  0.6338
12302PW      WM41842   9.556   8.253   5.240  0.0976  0.1571  0.2128
12303PW       W41843   7.281   8.204   1.754  0.0186 -0.3379  0.6309
12303PW      WP41844   7.155   8.248   1.796  0.2171  0.1395  0.7560
12303PW      WM41845   7.317   8.271   1.636  0.0198 -0.3260  0.6381
12304PW       W41846   5.906   3.810  13.083 -0.2018 -0.0451  0.1482
12304PW      WP41847   6.044   3.831  13.100 -0.1836 -0.0218 -0.0162
12304PW      WM41848   5.854   3.760  13.202 -0.3942 -0.3509 -0.0572
12305PW       W41849   9.067   4.728   0.472 -0.0387 -0.2593  0.0734
12305PW      WP41850   9.135   4.683   0.358  0.1046 -0.0313  0.0668
12305PW      WM41851   8.931   4.702   0.493 -0.0767  0.0550  0.2508
12306PW       W41852   7.024  10.018   4.979 -0.2251  0.0183  0.0919
12306PW      WP41853   7.133   9.934   5.005 -0.2904 -0.1460 -0.1533
12306PW      WM41854   6.980  10.140   5.030  0.3250  0.3744 -0.2175
12307PW       W41855   2.696   0.387   3.081  0.2967 -0.0217 -0.2202
12307PW      WP41856   2.709   0.524   3.106  0.4376 -0.1092  0.2332
12307PW      WM41857   2.720   0.299   2.974  0.2321 -0.2418 -0.0577
12308PW       W41858  11.395   9.046   3.484 -0.1079  0.2418 -0.1757
12308PW      WP41859  11.335   8.938   3.418 -0.1130  0.0174  0.1798
12308PW      WM41860  11.428   9.133   3.379  0.0626  0.1405 -0.2094
12309PW       W41861   4.231   2.677   4.469  0.4574 -0.1030 -0.1865
12309PW      WP41862   4.227   2.791   4.551  0.0871 -0.4237  0.2714
12309PW      WM41863   4.322   2.670   4.364  0.3183  0.0670 -0.3228
12310PW       W41864   0.870   2.955   9.968  0.4120 -0.1480  0.0597
12310PW      WP41865   0.905   2.943   9.833  0.5867 -0.0261  0.0921
12310PW      WM41866   0.830   2.837  10.032 -1.0257  0.1195 -0.1883
12311PW       W41867   8.331   8.455   1.524 -0.3300 -0.0417 -0.2874
12311PW      WP41868   8.432   8.426   1.432  0.4756  1.0789  0.1257
12311PW      WM41869   8.354   8.406   1.395  0.1558 -0.8226  0.0599
12312PW       W41870   3.315   1.719  11.365  0.1018  0.5339 -0.2041
12312PW      WP41871   3.207   1.629  11.362  0.7066 -0.2639  0.0366
12312PW      WM41872   3.378   1.741  11.488 -0.2351 -0.1167  0.1109
12313PW       W41873  10.324   4.067   4.325 -0.3258 -0.0987  0.1773
12313PW      WP41874  10.284   4.013   4.202 -0.1768 -0.2048  0.1749
12313PW      WM41875  10.371   3.971   4.415 -0.1132  0.1347  0.3222
12314PW       W41876   4.742   4.096   4.057 -0.7109  0.0676 -0.6385
12314PW      WP41877   4.774   3.971   4.110  0.1674  0.3219 -0.4852
12314PW      WM41878   4.849   4.072   3.970  0.5114 -0.4471  0.7930
12315PW       W41879   6.731  10.397  11.317  0.1560  0.0197 -0.0077
12315PW      WP41880   6.830  10.298  11.331 -0.4434 -0.5951  0.1298
12315PW      WM41881   6.761  10.336  11.195  0.7821  0.6213 -0.1850
12316PW       W41882   2.832   6.876   3.680 -0.0432 -0.0571  0.0745
12316PW      WP41883   2.823   6.924   3.811 -0.1595 -0.0405  0.0615
12316PW      WM41884   2.824   6.752   3.616  0.2598 -0.2393  0.3758
12317PW       W41885  10.940   6.520   4.885 -0.0659  0.1409  0.2043
12317PW      WP41886  10.883   6.613   4.797  0.2993  0.5175  0.3483
12317PW      WM41887  10.936   6.579   5.012 -0.4326  0.2113  0.1658
12318PW       W41888   6.904  11.082   9.429 -0.1357 -0.4595 -0.4599
12318PW      WP41889   6.878  11.203   9.495  0.4548 -0.1562 -0.7388
12318PW      WM41890   6.967  11.132   9.314  0.1162  0.5261  0.0487
12319PW       W41891   4.890   2.735   0.407 -0.4230  0.5488 -0.9554
12319PW      WP41892   4.807   2.624   0.428 -0.1283  0.4210 -0.3460
12319PW      WM41893   4.919   2.837   0.498  0.2591  0.1066 -0.6343
12320PW       W41894   1.283   7.674   9.685  0.0219  0.0971 -0.0217
12320PW      WP41895   1.195   7.767   9.627 -0.0845 -0.2494 -0.4399
12320PW      WM41896   1.348   7.798   9.685 -0.5400  0.4161 -0.4218
12321PW       W41897   8.018   6.813  11.429 -0.0254  0.0643  0.4988
12321PW      WP41898   7.889   6.760  11.410  0.2037 -0.3991  0.1158
12321PW      WM41899   8.080   6.760  11.542  0.4044  0.2249  0.3488
12322PW       W41900   7.283   9.209   3.003 -0.0170 -0.0584 -0.3788
12322PW      WP41901   7.304   9.223   2.865 -0.2957 -0.3891 -0.4629
12322PW      WM41902   7.324   9.336   3.044  0.2794 -0.3301  0.2293
12323PW       W41903   6.974   5.666  10.417 -0.1984  0.1205 -0.2801
12323PW      WP41904   6.894   5.670  10.532 -0.2352 -0.3815 -0.2808
12323PW      WM41905   7.031   5.741  10.314  0.1285  0.3029  0.0212
12324PW       W41906   6.706   3.385  10.072  0.3020 -0.1243  0.2274
12324PW      WP41907   6.664   3.262  10.019 -0.1914 -0.0211  0.3516
12324PW      WM41908   6.783   3.464   9.986 -0.0725  0.0948  0.0804
12325PW       W41909   1.732   1.863  10.671  0.7766 -0.3589 -0.0426
12325PW      WP41910   1.753   1.987  10.609  0.0452 -0.3025 -0.2151
12325PW      WM41911   1.754   1.923  10.796  0.6466  0.6005 -0.4347
12326PW       W41912   5.852   3.582   5.273  0.1321 -0.1581  0.1109
12326PW      WP41913   5.852   3.718   5.305 -0.1149  0.0103 -0.5218
12326PW      WM41914   5.849   3.498   5.161  0.2230 -0.0484  0.0248
12327PW       W41915  11.951   7.711   1.860  0.1601  0.0780 -0.4266
12327PW      WP41916  12.009   7.836   1.882 -0.2973  0.2009  0.2264
12327PW      WM41917  11.845   7.787   1.912  0.1233 -0.0395 -0.3274
12328PW       W41918   9.581   9.380  10.701  0.4409  0.0317  0.3309
12328PW      WP41919   9.664   9.429  10.599  0.0319 -0.1856 -0.1316
12328PW      WM41920   9.609   9.307  10.817 -0.1024  0.1116  0.5257
12329PW       W41921   6.494   9.707   3.279  0.0667 -0.1163 -0.1873
12329PW      WP41922   6.507   9.574   3.236 -0.0243 -0.2772  0.2603
12329PW      WM41923   6.394   9.698   3.182 -0.0086 -0.6860 -0.0737
12330PW       W41924   2.122   8.128   5.363 -0.2527  0.0091 -0.2531
12330PW      WP41925   2.089   8.110   5.228  0.2345 -0.9065 -0.2914
12330PW      WM41926   2.169   8.029   5.450 -0.0295  0.3870  0.0737
12331PW       W41927   3.777   0.828   9.073  0.0547 -0.3857  0.2842
12331PW      WP41928   3.821   0.695   9.062  0.3539 -0.2807  0.1596
12331PW      WM41929   3.659   0.827   9.148  0.0641  0.5646  0.3684
12332PW       W41930   7.142   8.595   5.177 -0.1183  0.1045  0.1313
12332PW      WP41931   7.258   8.544   5.117 -0.1740  0.3163 -0.1728
12332PW      WM41932   7.028   8.641   5.109  0.0386  0.4065  0.0632
12333PW       W41933   2.423   9.026  10.613  0.1253 -0.3521  0.1903
12333PW      WP41934   2.414   9.084  10.486 -0.4721  0.2624  0.4810
12333PW      WM41935   2.483   9.152  10.628 -0.1812 -0.2069  0.2498
12334PW       W41936   6.298  11.678   4.470 -0.0283  0.3880  0.3299
12334PW      WP41937   6.400  11.624   4.549 -0.4371 -0.5703  0.2654
12334PW      WM41938   6.336  11.764   4.573  0.2204  0.2159  0.3866
12335PW       W41939   7.792   5.211   2.803 -0.5521  0.1686  0.7063
12335PW      WP41940   7.761   5.348   2.808  0.1818  0.3640  0.5701
12335PW      WM41941   7.779   5.311   2.706  0.0889 -0.5935 -0.2612
12336PW       W41942   3.655   1.276   0.371 -0.0598  0.2425 -0.0894
12336PW      WP41943   3.609   1.391   0.437  0.2200  0.2812  0.0465
12336PW      WM41944   3.607   1.175   0.286  0.0488  0.1314 -0.0206
12337PW       W41945   2.246   0.315  11.995  0.1258  0.0170  0.1911
12337PW      WP41946   2.112   0.339  12.028 -0.0373  0.4066 -0.6336
12337PW      WM41947   2.322   0.227  11.917 -0.0168  0.3914 -0.3979
12338PW       W41948   0.727   9.931   5.333  0.2466 -0.0291  0.0739
12338PW      WP41949   0.591   9.914   5.364  0.2596 -0.0050  0.1456
12338PW      WM41950   0.840   9.973   5.403  0.1270  0.5489 -0.0565
12339PW       W41951   5.058   7.551   3.531  0.3079  0.0791  0.4162
12339PW      WP41952   5.185   7.551   3.473  0.2523  0.4816  0.2749
12339PW      WM41953   4.999   7.465   3.438 -0.1101  0.6763  0.0933
12340PW       W41954  10.421   2.913   1.281 -0.4050 -0.5821  0.2257
12340PW      WP41955  10.474   2.998   1.379 -0.0234 -0.2825 -0.2188
12340PW      WM41956  10.316   2.992   1.233 -0.2131 -0.1242  0.5203
12341PW       W41957   4.035   3.387   5.632 -0.2107  0.2879 -0.4247
12341PW      WP41958   4.023   3.430   5.500 -0.2869  0.2362 -0.4350
12341PW      WM41959   4.173   3.382   5.654 -0.2760  0.7460  0.2749
12342PW       W41960   3.403   7.023  10.550  0.1424  0.0119  0.0542
12342PW      WP41961   3.474   7.045  10.432 -0.0001 -0.1772 -0.0699
12342PW      WM41962   3.342   7.142  10.590  0.0232  0.0834 -0.3276
12343PW       W41963   3.071  11.947  11.888 -0.1892 -0.1534  0.2206
12343PW      WP41964   2.978  12.044  11.850 -0.0291  0.0939  0.4450
12343PW      WM41965   3.160  11.927  11.994  0.2188 -0.4278 -0.1494
12344PW       W41966  11.137   5.795  13.021  0.0118 -0.5266  0.2745
12344PW      WP41967  11.044   5.880  13.080 -0.0403 -0.1444 -0.3208
12344PW      WM41968  11.247   5.741  12.952  0.0933  0.3319 -0.3554
12345PW       W41969   0.403   4.620   0.306  0.3912  0.3137  0.0318
12345PW      WP41970   0.454   4.573   0.185  0.0166 -0.2489  0.0716
12345PW      WM41971   0.280   4.619   0.374  0.0921  0.4027 -0.4804
12346PW       W41972  10.469  10.867   1.936  0.0028 -0.0496 -0.0029
12346PW      WP41973  10.357  10.922   2.001 -0.0021 -0.4231  0.3210
12346PW      WM41974  10.508  10.750   1.871 -0.5127 -0.1167 -0.2155
12347PW       W41975  10.358  12.035   2.988  0.1032 -0.1954 -0.1899
12347PW      WP41976  10.447  11.928   2.974  0.3195 -0.0422 -0.0141
12347PW      WM41977  10.245  12.058   2.908 -0.1167 -0.2367  0.1004
12348PW       W41978  11.724   3.426   9.548  0.1279  0.1708  0.0166
12348PW      WP41979  11.826   3.368   9.626  0.1102  0.2686  0.1141
12348PW      WM41980  11.765   3.533   9.468 -0.1000 -0.0413 -0.3972
12349PW       W41981   9.354   9.544   1.534  0.2351 -0.1176 -0.2399
12349PW      WP41982   9.300   9.420   1.500  0.4320 -0.2367 -0.1351
12349PW      WM41983   9.475   9.551   1.605  0.2482  0.2256 -0.2860
12350PW       W41984   9.669   9.963   8.363 -0.0261  0.6452  0.2596
12350PW      WP41985   9.562   9.997   8.280  0.2544  0.1408 -0.3469
12350PW      WM41986   9.776  10.026   8.428  0.1299  0.0928  0.5700
12351PW       W41987  10.089   6.714  13.096  0.1435  0.0990  0.0283
12351PW      WP41988  10.151   6.838  13.115  0.2750  0.0311  0.0494
12351PW      WM41989  10.083   6.585  13.149  0.0763 -0.0723 -0.3764
12352PW       W41990  10.194   2.086   8.769  0.2248  0.0486  0.0859
12352PW      WP41991  10.171   2.124   8.636 -0.2046 -0.1002  0.1089
12352PW      WM41992  10.195   2.041   8.901 -0.3095  0.4078  0.2273
12353PW       W41993  12.143   5.182   8.963 -0.0708 -0.2341 -0.0131
12353PW      WP41994  12.191   5.140   9.088  0.3234 -0.1310 -0.1256
12353PW      WM41995  12.008   5.204   8.996  0.0730  0.0386  0.4448
12354PW       W41996   0.023  10.721  11.196 -0.4037 -0.2731 -0.1668
12354PW      WP41997  -0.052  10.786  11.294  0.5111  0.1775  0.2914
12354PW      WM41998   0.121  10.645  11.130 -0.3701 -0.4212  0.0464
12355PW       W41999   6.424   4.614  10.486  0.5259  0.4292  0.0255
12355PW      WP42000   6.295   4.669  10.495 -0.0218 -0.5875 -0.6255
12355PW      WM42001   6.470   4.724  10.559  0.4400  0.1465  0.5257
12356PW       W42002   0.808   7.092   4.366 -0.2439  0.0371  0.0357
12356PW      WP42003   0.808   7.067   4.504 -0.1443 -0.0151  0.0256
12356PW      WM42004   0.733   7.205   4.329 -0.1314  0.1720  0.2105
12357PW       W42005   4.095   2.118   5.123  0.1481 -0.0399  0.0610
12357PW      WP42006   4.219   2.139   5.184  0.4577  0.0989 -0.5816
12357PW      WM42007   4.026   1.997   5.112 -0.1308  0.1432 -0.3200
12358PW       W42008   3.289   6.831  12.129  0.2673  0.0079  0.4405
12358PW      WP42009   3.346   6.936  12.203  0.0905  0.0981  0.4520
12358PW      WM42010   3.242   6.784  12.252 -0.3333  0.0998  0.2581
12359PW       W42011  10.742  11.717   0.452 -0.4434  0.4416  0.3004
12359PW      WP42012  10.749  11.605   0.368 -0.0840  0.5596  0.1610
12359PW      WM42013  10.728  11.654   0.576  0.1260 -0.5839 -0.1010
12360PW       W42014   5.613   6.924   8.682 -0.0236 -0.3298 -0.3175
12360PW      WP42015   5.739   6.972   8.643  0.1551  0.1305  0.6820
12360PW      WM42016   5.473   6.933   8.675 -0.0377  0.0131  0.1518
12361PW       W42017   5.816   2.579  12.388 -0.0522  0.3284 -0.1707
12361PW      WP42018   5.849   2.696  12.458 -0.1117  0.0962  0.2622
12361PW      WM42019   5.681   2.605  12.360 -0.3379 -0.5920  0.1895
12362PW       W42020   2.613  10.696   0.375 -0.0220 -0.1813 -0.3839
12362PW      WP42021   2.686  10.635   0.272 -0.0256 -0.2145 -0.3669
12362PW      WM42022   2.694  10.776   0.294  0.0773 -0.5355 -0.6484
12363PW       W42023   8.493   8.319   8.551  0.2690  0.2638  0.0817
12363PW      WP42024   8.579   8.229   8.485 -0.5288 -0.3566 -0.1895
12363PW      WM42025   8.430   8.205   8.601  0.1315  0.2149 -0.1951
12364PW       W42026   5.884   9.612  12.256  0.1758  0.2217 -0.0834
12364PW      WP42027   5.885   9.476  12.221 -0.3105  0.2792 -0.3683
12364PW      WM42028   5.892   9.616  12.396  0.3684 -0.1879 -0.0752
12365PW       W42029   6.608   4.705   3.178  0.4261 -0.1777 -0.1734
12365PW      WP42030   6.653   4.683   3.047  0.3783 -0.1137 -0.2007
12365PW      WM42031   6.599   4.824   3.105  0.0647 -0.1679 -0.1225
12366PW       W42032   1.795   1.181  12.074  0.1211  0.0468  0.2319
12366PW      WP42033   1.797   1.060  12.004 -0.4139  0.0083  0.2609
12366PW      WM42034   1.925   1.201  12.120  0.2317 -0.3037  0.0878
12367PW       W42035   5.949   6.744  11.594  0.6880 -0.0195 -0.0136
12367PW      WP42036   5.986   6.627  11.527 -0.1355 -0.1088 -0.3735
12367PW      WM42037   5.841   6.830  11.572  0.4769 -0.2145  0.2373
12368PW       W42038   0.425   7.064  11.757 -0.0583 -0.0427  0.3155
12368PW      WP42039   0.401   7.052  11.619 -0.1919 -0.0100  0.3353
12368PW      WM42040   0.341   7.081  11.868 -0.4774  0.2034 -0.0238
12369PW       W42041   7.050   7.596   4.850  0.3140  0.2178  0.1072
12369PW      WP42042   6.993   7.641   4.970  0.7120  0.0573  0.3659
12369PW      WM42043   7.164   7.614   4.930  0.5743 -0.2147 -0.1512
12370PW       W42044   6.600   6.737   1.573  0.0561  0.3536  0.0181
12370PW      WP42045   6.674   6.841   1.632  0.3024  0.0327  0.2965
12370PW      WM42046   6.538   6.751   1.449 -0.1474 -0.1000  0.0603
12371PW       W42047   2.517   1.745   9.221  0.1703 -0.0793 -0.2240
12371PW      WP42048   2.420   1.805   9.139  0.1471  0.2020  0.0013
12371PW      WM42049   2.653   1.768   9.197  0.1557  0.1549 -0.0975
12372PW       W42050  10.574   4.230  10.552  0.1735 -0.2445 -0.1320
12372PW      WP42051  10.596   4.135  10.452  0.0436 -0.1198 -0.2814
12372PW      WM42052  10.459   4.229  10.633  0.0125 -0.2065 -0.3566
12373PW       W42053   8.539   9.821   1.071  0.1707  0.4622 -0.3039
12373PW      WP42054   8.496   9.718   1.156  0.2733  0.3444 -0.3935
12373PW      WM42055   8.619   9.843   1.183  0.1283  0.2888 -0.2384
12374PW       W42056   8.455   1.752   0.751  0.2434 -0.3859  0.3617
12374PW      WP42057   8.412   1.885   0.736  0.1227 -0.4276  0.3320
12374PW      WM42058   8.469   1.631   0.682  0.5193 -0.0533 -0.1985
12375PW       W42059   2.574  11.929   8.987 -0.0651  0.2572  0.5645
12375PW      WP42060   2.506  11.814   8.946  0.5809  0.0909 -0.1514
12375PW      WM42061   2.463  12.012   8.973 -0.3260 -0.1651 -0.1245
12376PW       W42062   3.432   5.172  11.028 -0.0500 -0.5663 -0.0663
12376PW      WP42063   3.524   5.227  10.938 -0.3420 -0.0955 -0.0926
12376PW      WM42064   3.300   5.213  11.007  0.2693  0.3707 -0.5217
12377PW       W42065  10.020   0.985   3.260 -0.2416  0.5682  0.7093
12377PW      WP42066  10.106   1.069   3.188  0.1831 -0.1481  0.3316
12377PW      WM42067   9.997   1.011   3.396 -0.2453  0.3510  0.7513
12378PW       W42068   3.990  11.521   0.547  0.0514 -0.1981 -0.1155
12378PW      WP42069   3.891  11.422   0.532 -0.2225 -0.0252  0.4310
12378PW      WM42070   4.084  11.554   0.449 -0.0676  0.3011 -0.0719
12379PW       W42071   0.651   6.722   2.073 -0.1311  0.6849 -0.3014
12379PW      WP42072   0.637   6.640   1.960  0.6476 -0.1340  0.1336
12379PW      WM42073   0.773   6.773   2.026  0.3817  0.1456  0.3396
12380PW       W42074   5.297   1.208   1.304  0.0185  0.1318 -0.0225
12380PW      WP42075   5.369   1.306   1.235  0.3412 -0.0764  0.0070
12380PW      WM42076   5.276   1.088   1.234  0.3628  0.1124 -0.0996
12381PW       W42077   2.179   0.968  12.827 -0.1225  0.0418  0.0507
12381PW      WP42078   2.073   0.888  12.870 -0.0171 -0.4743 -0.5736
12381PW      WM42079   2.265   0.903  12.738 -0.0235 -0.0852  0.2364
12382PW       W42080   8.249   4.309  11.583  0.2181  0.1940 -0.5174
12382PW      WP42081   8.347   4.292  11.681 -0.3859 -0.0242  0.0933
12382PW      WM42082   8.185   4.188  11.550  0.0444  0.0714  0.1849
12383PW       W42083   0.239   5.684  10.997  0.0255  0.2644  0.2882
12383PW      WP42084   0.379   5.689  10.996  0.0533 -0.1854  0.5615
12383PW      WM42085   0.256   5.750  10.874 -0.8747 -0.3095 -0.2071
12384PW       W42086   2.714   0.146  11.981 -0.0888 -0.4458 -0.2252
12384PW      WP42087   2.792   0.067  12.066 -0.4794 -0.2213  0.3813
12384PW      WM42088   2.830   0.177  11.909  0.2447 -0.2062  0.3799
12385PW       W42089   0.126   2.441  11.991  0.3092  0.3583  0.3346
12385PW      WP42090  -0.008   2.470  12.019  0.2020 -0.0322  0.2540
12385PW      WM42091   0.200   2.549  11.944  0.3529  0.0653 -0.3310
12386PW       W42092   4.779   8.531   9.427 -0.1904 -0.3096  0.2621
12386PW      WP42093   4.676   8.619   9.463  0.2458  0.4163 -0.1250
12386PW      WM42094   4.862   8.642   9.410 -0.4393 -0.1674 -0.1037
12387PW       W42095   9.041   5.191   2.351 -0.3516  0.0578  0.1115
12387PW      WP42096   8.930   5.204   2.266 -0.1120 -0.0138 -0.2247
12387PW      WM42097   9.111   5.070   2.365 -0.0576  0.2437  0.2996
12388PW       W42098   5.870   2.460   4.859 -0.2517  0.0868 -0.0427
12388PW      WP42099   5.775   2.555   4.822  0.1387  0.6259  0.2742
12388PW      WM42100   5.990   2.529   4.880  0.2279 -0.6085 -0.3113
12389PW       W42101  11.483   5.911   8.999 -0.0493  0.1976 -0.2803
12389PW      WP42102  11.378   5.988   9.050 -0.0948  0.0953 -0.2185
12389PW      WM42103  11.614   5.957   9.013 -0.0133 -0.0006  0.0832
12390PW       W42104  10.132   0.282   4.357 -0.4144  0.1121 -0.0346
12390PW      WP42105  10.185   0.194   4.261  0.2352 -0.1925  0.5525
12390PW      WM42106  10.138   0.415   4.315  0.0653  0.0360 -0.2456
12391PW       W42107   3.955   2.234   2.390 -0.2065 -0.2190  0.2129
12391PW      WP42108   4.038   2.121   2.384 -0.2094 -0.2284  0.3306
12391PW      WM42109   4.002   2.284   2.513  0.0670 -0.3803  0.1793
12392PW       W42110   8.346   5.003   3.533 -0.0827  0.1957  0.1157
12392PW      WP42111   8.482   5.014   3.566  0.0807  0.2613 -0.5167
12392PW      WM42112   8.410   4.889   3.483 -0.1066  0.4619 -0.5856
12393PW       W42113   4.171  11.653   9.944 -0.2890  0.0328 -0.1593
12393PW      WP42114   4.103  11.704  10.056 -0.2490  0.1563 -0.1899
12393PW      WM42115   4.185  11.788   9.907  0.5966  0.0903  0.2478
12394PW       W42116   2.699   2.260   3.431  0.1496  0.3144  0.1526
12394PW      WP42117   2.628   2.145   3.395  0.2752  0.1587  0.3903
12394PW      WM42118   2.704   2.196   3.555  0.1470  0.0199  0.0058
12395PW       W42119   3.725   2.363   1.142 -0.2729 -0.1785 -0.0655
12395PW      WP42120   3.783   2.256   1.211  0.3897  0.3330  0.2281
12395PW      WM42121   3.630   2.464   1.123 -0.0101  0.0207 -0.3750
12396PW       W42122   8.312   8.113  12.758  0.2256 -0.5119  0.3188
12396PW      WP42123   8.305   8.157  12.891 -0.1139 -0.4521  0.2847
12396PW      WM42124   8.173   8.100  12.754  0.0761  0.4573  0.7796
12397PW       W42125   1.851   2.900  10.854 -0.0746  0.2370 -0.1202
12397PW      WP42126   1.963   2.824  10.817 -0.0893  0.2954 -0.2899
12397PW      WM42127   1.868   3.027  10.798  0.2796  0.0042 -0.5842
12398PW       W42128   0.150   4.393  10.310 -0.3393 -0.2581 -0.0512
12398PW      WP42129   0.073   4.462  10.405 -0.1272 -0.0898  0.0017
12398PW      WM42130   0.225   4.397  10.192  0.2409  0.0258  0.3084
12399PW       W42131   3.904   6.328   9.046 -0.1059  0.0979  0.2419
12399PW      WP42132   3.928   6.241   9.153  0.0266 -0.4179 -0.1887
12399PW      WM42133   4.040   6.363   9.045 -0.1290  0.1962 -0.0985
12400PW       W42134   0.633   2.063  12.663  0.4265 -0.0997 -0.2393
12400PW      WP42135   0.617   1.925  12.645  0.1641 -0.1755  0.4385
12400PW      WM42136   0.732   1.969  12.696  0.2062 -0.1620  0.2894
12401PW       W42137   6.027   7.796  10.533  0.2040 -0.2875 -0.2707
12401PW      WP42138   5.919   7.811  10.445  0.1332 -0.4426 -0.2120
12401PW      WM42139   6.035   7.723  10.652 -0.0192 -0.0356 -0.0956
12402PW       W42140  10.539   1.201  12.164 -0.6874 -0.0776  0.0697
12402PW      WP42141  10.608   1.243  12.049 -0.5713 -0.3094  0.0513
12402PW      WM42142  10.453   1.310  12.174 -0.4194  0.1314  0.1445
12403PW       W42143   0.138   9.443  11.471  0.0255 -0.0603 -0.0052
12403PW      WP42144   0.043   9.543  11.494  0.1697 -0.0355  0.5227
12403PW      WM42145   0.034   9.366  11.416 -0.0519  0.2150 -0.2598
12404PW       W42146   8.424   5.970  11.091 -0.2790  0.3433 -0.2930
12404PW      WP42147   8.508   5.996  10.982  0.1935  0.1027 -0.0010
12404PW      WM42148   8.397   5.888  10.981  0.2828 -0.0883 -0.1324
12405PW       W42149   5.467   4.830   5.303 -0.3385  0.3997 -0.0175
12405PW      WP42150   5.575   4.882   5.231  0.0023  0.2089  0.3318
12405PW      WM42151   5.433   4.702   5.257  0.4496  0.2605 -0.2857
12406PW       W42152   7.272   0.588  11.147  0.1996 -0.6456  0.0847
12406PW      WP42153   7.267   0.631  11.014  0.2151  0.0377  0.2848
12406PW      WM42154   7.390   0.660  11.170 -0.1380 -0.0603  0.0915
12407PW       W42155   1.043   3.106   1.471 -0.3083 -0.0456  0.2324
12407PW      WP42156   0.937   3.122   1.380  0.0124 -0.2837 -0.1996
12407PW      WM42157   1.056   3.126   1.609  0.0879 -0.3028  0.2407
12408PW       W42158   9.415   6.533   4.437 -0.1793  0.2363 -0.2270
12408PW      WP42159   9.507   6.614   4.503 -0.1382 -0.2336  0.3325
12408PW      WM42160   9.345   6.630   4.509  0.6226  0.6410  0.0615
12409PW       W42161   7.285   6.576   2.277 -0.5800  0.5109  0.3104
12409PW      WP42162   7.234   6.511   2.164  0.2243  0.2262  0.0760
12409PW      WM42163   7.376   6.678   2.248  0.2210 -0.2598 -0.1421
12410PW       W42164   7.610   4.101   8.790  0.0495  0.7700  0.0273
12410PW      WP42165   7.484   4.111   8.731 -0.0454  0.0124  0.0497
12410PW      WM42166   7.683   4.131   8.906  0.5316  0.2497 -0.1182
12411PW       W42167   4.694   9.347   2.554  0.0625 -0.1201 -0.4870
12411PW      WP42168   4.681   9.373   2.417  0.2421  0.5505 -0.3931
12411PW      WM42169   4.778   9.235   2.543 -0.0275 -0.1622 -0.8054
12412PW       W42170   0.955   5.095   9.579 -0.4935  0.3288 -0.2783
12412PW      WP42171   0.936   4.956   9.587 -0.3259  0.3105 -0.1569
12412PW      WM42172   0.997   5.137   9.452 -0.1619  0.0698 -0.2638
12413PW       W42173   5.913   3.389   0.971  0.3511 -0.2223 -0.0983
12413PW      WP42174   5.939   3.352   0.838  0.1425 -0.1082 -0.1741
12413PW      WM42175   5.785   3.440   0.948  0.2178 -0.5019  0.0045
12414PW       W42176   0.596   4.184  12.574  0.0994 -0.2140  0.0412
12414PW      WP42177   0.461   4.184  12.609  0.0681  0.0933 -0.0653
12414PW      WM42178   0.693   4.153  12.670  0.1478  0.3386  0.1901
12415PW       W42179   6.826   6.070   0.694  0.0130  0.3145 -0.0965
12415PW      WP42180   6.869   5.998   0.806 -0.3519 -0.3774 -0.3696
12415PW      WM42181   6.875   6.160   0.789 -0.3495  0.5435 -0.1137
12416PW       W42182   9.474   0.899   9.692  0.1368  0.0434 -0.0827
12416PW      WP42183   9.482   0.995   9.590  0.2906  0.0530 -0.0625
12416PW      WM42184   9.467   0.760   9.699 -0.0359  0.0321 -0.3931
12417PW       W42185   7.907   4.579   8.599 -0.2227 -0.0812 -0.2139
12417PW      WP42186   7.814   4.616   8.697  0.1119 -0.2735  0.1917
12417PW      WM42187   7.991   4.656   8.679 -0.6675  0.1746  0.0261
12418PW       W42188   8.049   7.841   2.406  0.3738  0.0084  0.1200
12418PW      WP42189   7.963   7.732   2.425  0.2834  0.0705  0.0709
12418PW      WM42190   7.909   7.842   2.403  0.3613  0.0112  0.5001
12419PW       W42191   0.368   7.674   8.637 -0.0185 -0.0744  0.2198
12419PW      WP42192   0.230   7.657   8.652 -0.0107  0.3321  0.9499
12419PW      WM42193   0.386   7.539   8.603  0.1305 -0.1033  0.4041
12420PW       W42194  11.383   3.735   2.002 -0.2193  0.3884  0.7137
12420PW      WP42195  11.520   3.762   1.985 -0.2165  0.0437  0.0472
12420PW      WM42196  11.255   3.727   1.947  0.0059  0.5720  0.1196
12421PW       W42197   0.383   5.884  12.885  0.0857 -0.0907 -0.1245
12421PW      WP42198   0.330   6.000  12.827  0.5164  0.0034 -0.3525
12421PW      WM42199   0.304   5.776  12.847 -0.6838  0.5301 -0.4324
12422PW       W42200   6.719   0.384   0.283 -0.1062  0.3772 -0.0119
12422PW      WP42201   6.635   0.397   0.172 -0.2130  0.2903  0.0578
12422PW      WM42202   6.647   0.502   0.306 -0.2679  0.4124 -0.6073
12423PW       W42203   7.415   8.163  12.915  0.2928 -0.0026 -0.2027
12423PW      WP42204   7.513   8.259  12.944  0.1868  0.1703 -0.4029
12423PW      WM42205   7.370   8.151  12.783  0.2729  0.1469 -0.2096
12424PW       W42206  11.191   2.543   4.845  0.0421 -0.2406  0.0444
12424PW      WP42207  11.059   2.496   4.848 -0.0137 -0.1903 -0.6730
12424PW      WM42208  11.137   2.646   4.923  0.6506 -0.0940  0.2989
12425PW       W42209   4.037   9.915   4.872 -0.2325 -0.1880  0.2958
12425PW      WP42210   4.118   9.977   4.776 -0.2983 -0.2032  0.2304
12425PW      WM42211   4.151   9.901   4.953  0.0140 -0.2312 -0.0448
12426PW       W42212   1.613  10.737   0.129  0.2702 -0.3962  0.3541
12426PW      WP42213   1.658  10.791   0.250 -0.0907 -0.4897  0.5364
12426PW      WM42214   1.477  10.740   0.099  0.3653 -0.2677 -0.1075
12427PW       W42215   3.820  10.869   9.622 -0.4138  0.1263  0.1095
12427PW      WP42216   3.847  10.857   9.759  0.3241 -0.2578 -0.0448
12427PW      WM42217   3.747  10.806   9.521  0.3145 -0.2900 -0.1918
12428PW       W42218  11.241   5.623   4.308 -0.2222 -0.3802  0.2845
12428PW      WP42219  11.184   5.540   4.405  0.0566 -0.5138  0.3362
12428PW      WM42220  11.270   5.750   4.359  0.2396 -0.3837  0.0580
12429PW       W42221   7.581  10.812  13.017 -0.0892  0.2380  0.0887
12429PW      WP42222   7.618  10.711  12.927 -0.1776  0.0827  0.2250
12429PW      WM42223   7.709  10.758  13.039 -0.1437  0.0061 -0.1404
12430PW       W42224  11.929   6.786   3.115  0.1286  0.0911 -0.1142
12430PW      WP42225  11.888   6.870   3.011  0.2523  0.2287 -0.0537
12430PW      WM42226  11.837   6.687   3.077  0.4969 -0.1435 -0.4234
12431PW       W42227   1.756   2.861   0.923 -0.1562  0.1794 -0.1290
12431PW      WP42228   1.643   2.918   0.863 -0.4499 -0.0605  0.1776
12431PW      WM42229   1.839   2.962   0.972  0.1619  0.0016 -0.2799
12432PW       W42230   4.701   2.076   3.342 -0.2137  0.0855  0.1937
12432PW      WP42231   4.824   2.132   3.306  0.0233 -0.3679  0.2703
12432PW      WM42232   4.635   1.954   3.323  0.1439 -0.0710 -0.0963
12433PW       W42233   5.265   5.187   0.260  0.2891 -0.0614 -0.0477
12433PW      WP42234   5.263   5.326   0.278 -0.0647 -0.1104  0.3845
12433PW      WM42235   5.218   5.063   0.215  0.0804  0.1712 -0.5038
12434PW       W42236   5.211   1.679   3.201  0.1069  0.0638  0.0624
12434PW      WP42237   5.329   1.739   3.248  0.1248  0.3300 -0.3003
12434PW      WM42238   5.155   1.569   3.267 -0.2847 -0.1681 -0.6174
12435PW       W42239   1.399   6.471   3.053 -0.1464 -0.1500 -0.1886
12435PW      WP42240   1.455   6.474   2.925  0.0198 -0.4722 -0.1297
12435PW      WM42241   1.416   6.520   3.183  0.5231 -0.3012 -0.2058
12436PW       W42242   4.101   7.518   9.141 -0.0074  0.2389  0.2102
12436PW      WP42243   4.183   7.414   9.096 -0.4335  0.0929 -0.2882
12436PW      WM42244   4.050   7.500   9.270 -0.1063  0.4068  0.1948
12437PW       W42245   3.416   4.980   1.958  0.2396  0.2792 -0.1605
12437PW      WP42246   3.278   4.958   1.966  0.3558 -0.4989  0.1479
12437PW      WM42247   3.400   5.118   1.977 -0.0430  0.2269  0.0069
12438PW       W42248  10.366   2.929   3.009  0.0052  0.1993 -0.2067
12438PW      WP42249  10.267   3.005   3.073  0.0008  0.0452 -0.0259
12438PW      WM42250  10.443   2.933   3.126 -0.2958 -0.1582  0.0179
12439PW       W42251   3.229  11.737   8.224 -0.0548  0.1808  0.5661
12439PW      WP42252   3.109  11.781   8.167 -0.0111 -0.1856  0.1675
12439PW      WM42253   3.146  11.630   8.260 -0.1917 -0.0059 -0.2142
12440PW       W42254   5.213   2.247   3.436  0.4679 -0.0160  0.2327
12440PW      WP42255   5.301   2.289   3.336  0.0227  0.0992 -0.1305
12440PW      WM42256   5.154   2.162   3.531  0.2492  0.0309  0.1424
12441PW       W42257   8.461   6.826   3.664 -0.0963 -0.4576 -0.0867
12441PW      WP42258   8.324   6.818   3.639 -0.2701  0.6409  0.2365
12441PW      WM42259   8.568   6.830   3.755  0.4328 -0.1304 -0.6831
12442PW       W42260  10.665   8.546   0.886  0.4205  0.1506  0.0365
12442PW      WP42261  10.714   8.666   0.833  0.0784  0.2716 -0.0179
12442PW      WM42262  10.660   8.483   0.761 -0.4154  0.1683  0.0351
12443PW       W42263  11.730   8.217  13.163  0.0080  0.0123 -0.2205
12443PW      WP42264  11.726   8.343  13.103 -0.1309  0.2626  0.2870
12443PW      WM42265  11.865   8.214  13.198  0.0478  0.0500 -0.3677
12444PW       W42266  10.293   5.017  13.206 -0.0311 -0.1633  0.1199
12444PW      WP42267  10.333   5.148  13.232  0.2923 -0.2469  0.0653
12444PW      WM42268  10.269   4.906  13.288 -0.0211 -0.1942  0.0810
12445PW       W42269   7.298   6.577   5.034 -0.1988 -0.3961  0.6967
12445PW      WP42270   7.180   6.647   5.007  0.1083 -0.0658  0.0905
12445PW      WM42271   7.331   6.472   4.947  0.0650  0.5245 -0.4341
12446PW       W42272   9.176   5.131  11.408 -0.1555 -0.2319 -0.1086
12446PW      WP42273   9.249   5.187  11.513 -0.3606 -0.7260  0.3259
12446PW      WM42274   9.038   5.134  11.432 -0.0275 -0.3435  0.8355
12447PW       W42275  10.257  11.411  11.022  0.4908  0.2057 -0.2522
12447PW      WP42276  10.267  11.364  10.891 -0.0671 -0.1663 -0.1790
12447PW      WM42277  10.336  11.464  11.125  0.0972 -0.0287  0.1896
12448PW       W42278   6.813  10.216   3.703 -0.1560 -0.1916 -0.0461
12448PW      WP42279   6.796  10.354   3.718  0.1936 -0.1410 -0.0854
12448PW      WM42280   6.680  10.246   3.668 -0.0228  0.1979 -0.2493
12449PW       W42281   5.605   3.899   0.606  0.6120  0.3552 -0.4791
12449PW      WP42282   5.586   3.820   0.492 -0.0170  0.3804 -0.4102
12449PW      WM42283   5.730   3.962   0.599  0.6708  0.2990 -0.0423
12450PW       W42284   9.220   8.326  10.452  0.0023 -0.0737 -0.1675
12450PW      WP42285   9.168   8.456  10.438 -0.0917 -0.0636  0.2000
12450PW      WM42286   9.267   8.293  10.580  0.2352 -0.2864 -0.3048
12451PW       W42287   5.761   1.894   4.850 -0.6955 -0.4457 -0.0868
12451PW      WP42288   5.898   1.871   4.857 -0.6323 -0.0404  0.1391
12451PW      WM42289   5.779   1.764   4.899 -0.3558 -0.4472 -0.2069
12452PW       W42290   8.023  11.113   3.897 -0.3725 -0.1877 -0.1390
12452PW      WP42291   8.020  11.124   3.757  0.0153  0.2065 -0.1252
12452PW      WM42292   8.085  11.131   4.021  0.4155 -0.3938 -0.4761
12453PW       W42293   5.697   8.927   9.550 -0.2913  0.2480 -0.3210
12453PW      WP42294   5.679   9.041   9.629 -0.3857  0.0054  0.0193
12453PW      WM42295   5.655   8.981   9.428 -0.0161  0.0501 -0.5119
12454PW       W42296   4.013   6.327   9.649  0.1141 -0.3398 -0.0916
12454PW      WP42297   3.996   6.242   9.759 -0.2183 -0.1269  0.0254
12454PW      WM42298   3.904   6.375   9.721  0.2008 -0.0224 -0.1648
12455PW       W42299   2.245   0.139   4.433 -0.2056 -0.1661 -0.1474
12455PW      WP42300   2.312   0.174   4.551 -0.1617 -0.1378 -0.1808
12455PW      WM42301   2.187   0.063   4.535  0.1887 -0.5351 -0.1806
12456PW       W42302   7.052   2.125   8.980 -0.1094 -0.0303  0.1366
12456PW      WP42303   7.136   2.191   8.891 -0.3503  0.2699  0.1226
12456PW      WM42304   6.968   2.229   9.023  0.1943  0.3808 -0.2212
12457PW       W42305   5.088  11.525   1.970  0.5443  0.2301  0.0390
12457PW      WP42306   5.227  11.543   1.958  0.6047 -0.0797  0.2213
12457PW      WM42307   5.026  11.639   2.022 -0.3304 -0.1811 -0.0169
12458PW       W42308   3.862   2.426  13.093 -0.4198  0.0504  0.1945
12458PW      WP42309   3.966   2.519  13.110 -0.5821  0.2941 -0.0941
12458PW      WM42310   3.804   2.440  13.220 -0.0330  0.1476  0.3693
12459PW       W42311   8.335   5.631  10.219 -0.2840 -0.3227 -0.4913
12459PW      WP42312   8.270   5.666  10.100 -0.2675  0.2698 -0.3426
12459PW      WM42313   8.308   5.498  10.252 -0.1523 -0.2990 -0.2795
12460PW       W42314   0.949   0.518   2.226 -0.0749 -0.2256  0.0231
12460PW      WP42315   0.831   0.527   2.152  0.0707 -0.0430 -0.1956
12460PW      WM42316   1.080   0.474   2.201 -0.1209 -0.0946 -0.5052
12461PW       W42317   9.002   2.607  10.811 -0.1946 -0.6290 -0.3450
12461PW      WP42318   9.018   2.693  10.702  0.1577 -0.1054  0.0939
12461PW      WM42319   8.958   2.727  10.867  0.4101 -0.2639 -0.6035
12462PW       W42320   4.050   5.816   3.211  0.0154  0.4330 -0.1700
12462PW      WP42321   3.948   5.844   3.302  0.2976  0.1192  0.2629
12462PW      WM42322   4.069   5.803   3.073 -0.7576  0.0843 -0.2698
12463PW       W42323  10.577   3.259  11.374 -0.2470 -0.2420  0.1485
12463PW      WP42324  10.465   3.261  11.458 -0.1564 -0.6009  0.2852
12463PW      WM42325  10.616   3.372  11.300 -0.3821 -0.1374  0.2344
12464PW       W42326   7.388   8.302  10.652  0.2298 -0.2383  0.0035
12464PW      WP42327   7.258   8.309  10.601 -0.1316 -0.3864  0.8218
12464PW      WM42328   7.456   8.420  10.687 -0.0393 -0.0214 -0.1800
12465PW       W42329   0.778   9.000   9.280  0.2338  0.0985 -0.0131
12465PW      WP42330   0.827   8.884   9.342 -0.0160 -0.0775 -0.1380
12465PW      WM42331   0.702   8.916   9.199 -0.0791  0.1230  0.2427
12466PW       W42332   1.164   5.510   1.242 -0.0618  0.0393  0.0190
12466PW      WP42333   1.107   5.592   1.144 -0.8579 -0.1696  0.2675
12466PW      WM42334   1.278   5.580   1.284  0.0722  0.0366 -0.3294
12467PW       W42335   2.808   1.837  10.617  0.2488  0.2932  0.0362
12467PW      WP42336   2.926   1.769  10.584  0.1095 -0.1835  0.4530
12467PW      WM42337   2.691   1.796  10.553  0.1755  0.2539  0.1934
12468PW       W42338   4.508   2.669   4.105 -0.0961  0.2156  0.4483
12468PW      WP42339   4.459   2.662   4.236  0.6071  0.1244  0.7256
12468PW      WM42340   4.626   2.617   4.159 -0.0411 -0.1104  0.0416
12469PW       W42341   7.925   9.147  11.385 -0.0935 -0.1790 -0.0104
12469PW      WP42342   8.056   9.115  11.347 -0.2296  0.1217 -0.8373
12469PW      WM42343   7.840   9.130  11.496 -0.3993 -0.1168 -0.2282
12470PW       W42344   6.326   1.670  11.517  0.3572  0.4893 -0.3968
12470PW      WP42345   6.331   1.533  11.489  0.0507  0.4742 -0.3907
12470PW      WM42346   6.431   1.752  11.560  0.4443  0.1369  0.1028
12471PW       W42347   8.862   2.027  10.201 -0.2572  0.1858 -0.2636
12471PW      WP42348   8.725   2.010  10.177 -0.2686 -0.3448  0.0904
12471PW      WM42349   8.975   2.110  10.200 -0.3109  0.2919  0.3774
12472PW       W42350  10.052  11.094   2.109  0.2218  0.0003  0.0608
12472PW      WP42351  10.033  11.162   2.230  0.7069  0.2536  0.0068
12472PW      WM42352  10.156  11.028   2.042  0.0197 -0.2521 -0.0134
12473PW       W42353   6.472   8.009   1.223 -0.0604  0.1787 -0.2588
12473PW      WP42354   6.406   7.925   1.313  0.0030  0.3109 -0.0879
12473PW      WM42355   6.493   8.131   1.287 -0.8971  0.3576 -0.2682
12474PW       W42356   3.733  11.966   9.930 -0.0790  0.0818  0.0995
12474PW      WP42357   3.726  12.005   9.796 -0.0700 -0.1899  0.0173
12474PW      WM42358   3.707  11.950   9.793 -0.0058 -0.3789  0.1331
12475PW       W42359   3.180   0.116   5.374 -0.1067  0.0379  0.0383
12475PW      WP42360   3.281   0.093   5.281 -0.4443 -0.2121 -0.2818
12475PW      WM42361   3.058   0.178   5.406 -0.2857 -0.0270 -0.4815
12476PW       W42362  10.495   0.701   1.662  0.3833  0.2156  0.0903
12476PW      WP42363  10.494   0.681   1.524 -0.0351 -0.5487  0.1754
12476PW      WM42364  10.505   0.772   1.782  0.3156  0.0006  0.2265
12477PW       W42365  11.646   9.922   9.289  0.3697  0.2270  0.0255
12477PW      WP42366  11.704   9.924   9.416  0.0391  0.0452  0.1854
12477PW      WM42367  11.557   9.900   9.184 -0.0907 -0.4802  0.5202
12478PW       W42368   6.400   9.055   3.848  0.1419 -0.2839 -0.1288
12478PW      WP42369   6.460   9.171   3.798 -0.0740  0.0766  0.4116
12478PW      WM42370   6.509   8.967   3.832  0.1559 -0.2904 -0.0022
12479PW       W42371   7.017   3.977   3.775  0.0576  0.2675  0.0609
12479PW      WP42372   7.086   4.097   3.795  0.1376  0.2574 -0.1398
12479PW      WM42373   7.035   3.916   3.650 -0.2098  0.1746  0.0625
12480PW       W42374   6.339   5.601  11.837 -0.1248  0.2365  0.0172
12480PW      WP42375   6.428   5.634  11.940 -0.0425 -0.4568  0.1920
12480PW      WM42376   6.227   5.673  11.881 -0.1296  0.0194  0.3771
12481PW       W42377   5.431   2.766   3.485 -0.2877  0.4038 -0.0962
12481PW      WP42378   5.296   2.782   3.450 -0.3684  0.4502  0.2210
12481PW      WM42379   5.497   2.765   3.361  0.0490 -0.1613  0.0715
12482PW       W42380   2.478   0.081   1.934  0.0766  0.0371 -0.0212
12482PW      WP42381   2.428   0.000   1.832 -0.1984 -0.1906  0.2808
12482PW      WM42382   2.607   0.136   1.930  0.0533  0.0768 -0.4191
12483PW       W42383   1.005   0.921  12.945 -0.0925  0.0621 -0.1095
12483PW      WP42384   0.957   0.975  13.065 -0.0564  0.1841 -0.1496
12483PW      WM42385   0.972   1.057  12.950  0.2611  0.1471  0.3327
12484PW       W42386   0.418   1.219  12.219  0.0067  0.0032  0.2775
12484PW      WP42387   0.365   1.161  12.103  0.6387  0.9126 -0.5496
12484PW      WM42388   0.487   1.162  12.326 -0.2051 -0.2760  0.2718
12485PW       W42389   0.524   2.279   2.163  0.2063  0.0200 -0.2994
12485PW      WP42390   0.465   2.164   2.110  0.1535 -0.1069  0.0233
12485PW      WM42391   0.644   2.319   2.103  0.3329  0.3762  0.1547
12486PW       W42392   4.325   4.322  10.470  0.0260  0.0056 -0.1853
12486PW      WP42393   4.309   4.185  10.448  0.1180 -0.0593  0.1292
12486PW      WM42394   4.242   4.399  10.553  0.2835  0.4314 -0.3111
12487PW       W42395   6.152   3.452  13.316  0.1326  0.0584  0.1613
12487PW      WP42396   6.217   3.331  13.287  0.4784  0.2620  0.0492
12487PW      WM42397   6.089   3.423  13.437 -0.2317  0.1616  0.0053
12488PW       W42398  10.390   2.379  11.440  0.3605  0.4312  0.2183
12488PW      WP42399  10.279   2.402  11.522  0.3870  0.0277  0.3799
12488PW      WM42400  10.385   2.349  11.577  0.2591  0.1414  0.1539
12489PW       W42401   8.178   8.690   8.377 -0.1641 -0.4185  0.1464
12489PW      WP42402   8.114   8.673   8.254 -0.0632  0.6895 -0.1182
12489PW      WM42403   8.206   8.712   8.513  0.2145 -0.1193  0.0281
12490PW       W42404   9.044   9.546  11.932  0.1164 -0.1483  0.4306
12490PW      WP42405   9.148   9.592  12.014  0.5132  0.0834 -0.1714
12490PW      WM42406   9.053   9.488  11.805  0.1652  0.2050  0.2675
12491PW       W42407   3.574   8.987   9.165 -0.1666 -0.2336  0.0331
12491PW      WP42408   3.579   8.933   9.035  0.7352 -0.2253  0.0368
12491PW      WM42409   3.581   9.116   9.218 -0.5350 -0.3721  0.4489
12492PW       W42410  10.840   9.733  11.870  0.4070  0.0887 -0.0972
12492PW      WP42411  10.765   9.825  11.943  0.1738 -0.2553  0.1133
12492PW      WM42412  10.895   9.678  11.753 -0.1082 -0.1174 -0.2573
12493PW       W42413   3.332   3.473   3.490  0.2424 -0.4971  0.4223
12493PW      WP42414   3.359   3.356   3.419 -0.4248 -0.4710  0.0936
12493PW      WM42415   3.472   3.486   3.490  0.2038  0.1505 -0.0019
12494PW       W42416   5.844   4.904   2.807  0.0749 -0.2662 -0.0554
12494PW      WP42417   5.971   4.844   2.814  0.2037  0.0315  0.3850
12494PW      WM42418   5.778   4.995   2.889  0.2273 -0.7345  0.6289
12495PW       W42419   2.383   0.409   1.100 -0.0977 -0.1155  0.1411
12495PW      WP42420   2.246   0.417   1.129 -0.2259 -0.0573 -0.4215
12495PW      WM42421   2.403   0.431   0.963  0.1221 -0.0405  0.1840
12496PW       W42422   5.012   2.095   4.752  0.1078  0.0771  0.4839
12496PW      WP42423   4.961   2.034   4.867 -0.2408 -0.7131 -0.0498
12496PW      WM42424   4.939   2.153   4.647  0.1532 -0.4993  0.1130
12497PW       W42425   8.976   0.886   4.049 -0.2811  0.2593 -0.0765
12497PW      WP42426   8.866   0.814   4.095  0.0407 -0.1044  0.1557
12497PW      WM42427   9.025   0.883   3.917 -0.8446  0.0475 -0.2936
12498PW       W42428   4.486   8.137   1.239 -0.3826 -0.1947  0.2780
12498PW      WP42429   4.534   8.006   1.244 -0.0846 -0.0905  0.2770
12498PW      WM42430   4.379   8.214   1.288 -0.2044  0.3839 -0.1861
12499PW       W42431   9.381   6.953   8.611 -0.3021  0.3192 -0.6104
12499PW      WP42432   9.357   7.078   8.671 -0.9519  0.0591 -0.2807
12499PW      WM42433   9.292   6.858   8.662  0.6446 -0.5227 -0.3681
12500PW       W42434   2.662  10.901   4.559 -0.3710 -0.3345  0.0810
12500PW      WP42435   2.778  10.896   4.638 -0.2372 -0.1160 -0.0992
12500PW      WM42436   2.597  10.948   4.674 -0.1419 -0.3615  0.2264
12501PW       W42437   0.798   1.556  11.263  0.1246 -0.2250 -0.4332
12501PW      WP42438   0.825   1.423  11.297 -0.1395 -0.1068  0.3569
12501PW      WM42439   0.887   1.631  11.185  0.4123 -0.0813  0.0158
12502PW       W42440   1.300  10.736   8.679 -0.2172  0.4366  0.3058
12502PW      WP42441   1.407  10.666   8.622 -0.3686  0.5018 -0.0787
12502PW      WM42442   1.195  10.644   8.680  0.0044  0.1279 -0.5519
12503PW       W42443   2.979   9.230   9.762  0.0581  0.2380 -0.1129
12503PW      WP42444   2.954   9.105   9.821  0.2115  0.1794 -0.1675
12503PW      WM42445   2.879   9.270   9.673 -0.3362 -0.2547  0.0829
12504PW       W42446   5.429  10.913   5.305 -0.3012 -0.0944  0.2015
12504PW      WP42447   5.300  10.957   5.273 -0.1306  0.4333  0.1991
12504PW      WM42448   5.428  10.854   5.178  0.4141  0.0846  0.0932
12505PW       W42449   9.407   0.158  12.687 -0.0246  0.2471 -0.1519
12505PW      WP42450   9.337   0.068  12.607  0.2384 -0.0114 -0.0996
12505PW      WM42451   9.401   0.138  12.825 -0.0716 -0.1645 -0.2096
12506PW       W42452   6.871   8.484  12.203  0.0685 -0.4042 -0.4574
12506PW      WP42453   6.911   8.509  12.071  0.3905  0.0170 -0.2921
12506PW      WM42454   6.809   8.608  12.224  0.0669 -0.4209 -0.3621
12507PW       W42455   6.845   6.033   0.121 -0.5895 -0.0710 -0.7691
12507PW      WP42456   6.978   5.996   0.099 -0.6190 -0.3818 -0.4662
12507PW      WM42457   6.766   6.148   0.128 -0.2048  0.1857 -0.3701
12508PW       W42458   9.512   2.491   0.639  0.1020 -0.0709 -0.0669
12508PW      WP42459   9.585   2.538   0.749 -0.2952  0.4731 -0.0134
12508PW      WM42460   9.636   2.478   0.576 -0.0107 -0.0592 -0.2960
12509PW       W42461   0.137   4.372  12.215  0.0674 -0.0505 -0.0880
12509PW      WP42462   0.239   4.467  12.204 -0.0115  0.1757  0.7589
12509PW      WM42463   0.017   4.418  12.271  0.0078 -0.4158  0.1031
12510PW       W42464   7.543   6.825  10.152  0.1796 -0.0174 -0.4800
12510PW      WP42465   7.458   6.924  10.202  0.1926 -0.3862  0.3614
12510PW      WM42466   7.611   6.775  10.264 -0.6181 -0.5691 -0.1971
12511PW       W42467   5.019   9.252   5.267 -0.2335 -0.5204  0.1067
12511PW      WP42468   4.923   9.172   5.203 -0.2324 -0.1431 -0.3972
12511PW      WM42469   5.143   9.190   5.290  0.0700 -0.0922 -0.2850
12512PW       W42470  11.908   0.917   8.888 -0.1121 -0.1040  0.2160
12512PW      WP42471  11.928   0.988   8.769  0.2683 -0.0770  0.2886
12512PW      WM42472  11.941   0.935   9.023 -0.0785 -0.1044  0.2078
12513PW       W42473   2.659   6.387   0.990  0.0778 -0.0390  0.5121
12513PW      WP42474   2.657   6.472   0.879  0.2981 -0.3070  0.2956
12513PW      WM42475   2.590   6.454   1.091 -0.3013 -0.4371  0.5324
12514PW       W42476   6.964   6.697   9.780  0.2620 -0.3582 -0.3809
12514PW      WP42477   7.092   6.738   9.743  0.4941 -0.2480  0.4324
12514PW      WM42478   6.843   6.634   9.749  0.0295 -0.2642  0.2564
12515PW       W42479  10.386   9.480   0.516  0.0583 -0.1012  0.2421
12515PW      WP42480  10.473   9.558   0.438 -0.0987 -0.1353  0.0291
12515PW      WM42481  10.291   9.384   0.481  0.2119 -0.0076 -0.5440
12516PW       W42482  10.642   6.067   3.782  0.0611 -0.0956  0.2597
12516PW      WP42483  10.565   5.977   3.707 -0.2992  0.2942  0.1402
12516PW      WM42484  10.592   6.195   3.808  0.3721  0.1292 -0.1903
12517PW       W42485   4.262   5.309  11.420  0.2073  0.2756 -0.0934
12517PW      WP42486   4.334   5.204  11.477  0.2758  0.0792 -0.5255
12517PW      WM42487   4.140   5.329  11.353  0.0704  0.3369  0.1671
12518PW       W42488   4.402   8.827   3.041 -0.3727  0.1737 -0.2062
12518PW      WP42489   4.526   8.819   3.106 -0.2481  0.2031 -0.4361
12518PW      WM42490   4.372   8.690   3.031 -0.2187  0.0980  0.2506
12519PW       W42491   4.939   7.318  11.721  0.5510 -0.1901  0.3503
12519PW      WP42492   5.006   7.384  11.617 -0.0252 -0.6317 -0.3474
12519PW      WM42493   4.858   7.246  11.632  0.2302  0.3266  0.2015
12520PW       W42494   9.782   1.422   1.934 -0.0712 -0.2197  0.1650
12520PW      WP42495   9.859   1.517   1.865 -0.1170 -0.3328 -0.0481
12520PW      WM42496   9.753   1.530   2.018 -0.2151 -0.2947  0.2131
12521PW       W42497   7.651   8.868   9.035 -0.1255 -0.2348  0.0641
12521PW      WP42498   7.559   8.848   8.931  0.2675 -0.2114 -0.3031
12521PW      WM42499   7.771   8.800   9.059 -0.2735 -0.4851  0.1130
12522PW       W42500   4.621   6.112  10.318 -0.5909 -0.1437 -0.1500
12522PW      WP42501   4.610   6.133  10.180 -0.8218 -0.2903 -0.1584
12522PW      WM42502   4.730   6.184  10.270 -0.8327  0.1728 -0.2447
12523PW       W42503   3.948   9.614   2.808 -0.2992 -0.0294  0.1586
12523PW      WP42504   3.857   9.528   2.745  0.2687 -0.2287 -0.4446
12523PW      WM42505   3.905   9.528   2.706 -0.4847  0.0372  0.1777
12524PW       W42506  11.887   3.479   3.250 -0.4158  0.0045 -0.3383
12524PW      WP42507  11.887   3.587   3.160 -0.0224  0.1208 -0.2070
12524PW      WM42508  11.762   3.519   3.200 -0.4117  0.0655 -0.3010
12525PW       W42509  11.569   8.077   8.640 -0.1224  0.1099  0.3549
12525PW      WP42510  11.433   8.057   8.667 -0.2065  0.2909  0.0830
12525PW      WM42511  11.623   8.206   8.634  0.5193 -0.1424  0.3307
12526PW       W42512   0.627   8.910  12.441  0.1728  0.2439 -0.3092
12526PW      WP42513   0.750   8.937  12.503  0.2486 -0.0180 -0.3408
12526PW      WM42514   0.689   8.785  12.437 -0.0372  0.1058  0.2475
12527PW       W42515   7.465   1.406  11.049  0.1123  0.0955  0.3397
12527PW      WP42516   7.463   1.273  11.091 -0.0237  0.0309  0.1360
12527PW      WM42517   7.592   1.415  10.992  0.1258  0.0461  0.3623
12528PW       W42518   4.290   8.371  12.405 -0.0792 -0.2217  0.5235
12528PW      WP42519   4.354   8.411  12.287  0.1555 -0.0990  0.6896
12528PW      WM42520   4.413   8.319  12.446  0.0704 -0.1651  0.1678
12529PW       W42521   7.901   0.443  13.245  0.1495 -0.2184  0.0251
12529PW      WP42522   7.825   0.389  13.350 -0.4273  0.2718 -0.1133
12529PW      WM42523   8.032   0.411  13.285  0.2107 -0.1784 -0.1416
12530PW       W42524  10.468   3.472   2.134  0.1714  0.4082  0.0033
12530PW      WP42525  10.500   3.439   2.001 -0.0252  0.5758 -0.0875
12530PW      WM42526  10.351   3.546   2.116  0.0465  0.2943  0.3163
12531PW       W42527   5.805   3.068   2.486  0.2485  0.0635  0.6021
12531PW      WP42528   5.674   3.105   2.452  0.4207  0.3900  0.2662
12531PW      WM42529   5.879   2.957   2.445  0.1010  0.2378 -0.2339
12532PW       W42530   0.721   7.219  12.861 -0.1286  0.0015 -0.1057
12532PW      WP42531   0.753   7.120  12.954  0.1712 -0.0492 -0.2593
12532PW      WM42532   0.819   7.244  12.764  0.2613 -0.0572  0.2606
12533PW       W42533   0.618   9.570  11.770 -0.3807 -0.1705  0.3007
12533PW      WP42534   0.489   9.625  11.779 -0.3215 -0.0351  0.3314
12533PW      WM42535   0.524   9.470  11.743  0.0501 -0.4597 -0.2054
12534PW       W42536   5.540   4.090   1.484 -0.2538 -0.2814 -0.0919
12534PW      WP42537   5.536   3.985   1.576  0.0011  0.0410  0.3074
12534PW      WM42538   5.512   4.081   1.347 -0.2589 -0.0605 -0.1082
12535PW       W42539   4.037   2.238   2.883 -0.2843  0.5571 -0.5184
12535PW      WP42540   4.009   2.176   2.761 -0.2735 -0.7471  0.0500
12535PW      WM42541   4.176   2.244   2.869 -0.0850 -0.1573  0.5137
12536PW       W42542   0.141   6.216  11.238 -0.2936  0.0249 -0.0245
12536PW      WP42543   0.008   6.185  11.208 -0.4401  0.0670  0.5158
12536PW      WM42544   0.179   6.272  11.361 -0.0775  0.2416 -0.1851
12537PW       W42545  11.928  11.307   2.728 -0.0568  0.2560  0.0014
12537PW      WP42546  11.862  11.318   2.851  0.3215  0.0345  0.2352
12537PW      WM42547  11.974  11.184   2.681  0.0389  0.3579 -0.1773
12538PW       W42548   8.937  11.702   8.822  0.0751  0.6787 -0.1766
12538PW      WP42549   8.863  11.818   8.794 -0.5759  0.3136 -0.0659
12538PW      WM42550   8.944  11.836   8.862 -0.3684  0.6471  0.0434
12539PW       W42551   7.912   5.099  12.020 -0.4035  0.1186  0.2432
12539PW      WP42552   8.019   5.176  12.067 -0.2548  0.3442 -0.4123
12539PW      WM42553   7.945   4.968  12.053  0.3146  0.3310  0.4577
12540PW       W42554  10.957   2.031   2.106  0.2488 -0.0571  0.3132
12540PW      WP42555  11.005   1.952   2.001  0.0567 -0.3232  0.4192
12540PW      WM42556  10.936   1.915   2.181  0.1030 -0.1409  0.1453
12541PW       W42557   0.299  10.545   4.751  0.0088  0.3151  0.0400
12541PW      WP42558   0.340  10.651   4.833  0.3670  0.1732  0.0516
12541PW      WM42559   0.222  10.600   4.647 -0.2862  0.3414  0.2636
12542PW       W42560   1.961   0.427  13.298 -0.0619 -0.1559  0.1731
12542PW      WP42561   2.065   0.358  13.234  0.0238  0.1008  0.0310
12542PW      WM42562   2.083   0.495  13.310 -0.0792 -0.0803 -0.0641
12543PW       W42563  10.412   2.189  12.459  0.1404 -0.0797  0.3794
12543PW      WP42564  10.298   2.200  12.379 -0.0722  0.0264  0.6845
12543PW      WM42565  10.323   2.178  12.567 -0.5676 -0.1442 -0.1688
12544PW       W42566   1.046   1.056   2.077  0.0649 -0.2199 -0.1382
12544PW      WP42567   0.945   1.107   2.160 -0.3259  0.0277 -0.7357
12544PW      WM42568   1.136   0.956   2.115 -0.2651 -0.4825 -0.0184
12545PW       W42569   5.300   7.092   3.639  0.4517  0.2579  0.4105
12545PW      WP42570   5.332   7.002   3.536 -0.0723  0.4460  0.0587
12545PW      WM42571   5.380   7.184   3.571  0.4830  0.0666  0.1790
12546PW       W42572   1.646   6.142   0.087  0.5082 -0.1524  0.0739
12546PW      WP42573   1.648   6.151   0.227 -0.3441 -0.0354  0.1023
12546PW      WM42574   1.648   6.107  -0.048  0.2703 -0.0354  0.0381
12547PW       W42575  10.553   0.357  11.372 -0.1180  0.3458  0.4119
12547PW      WP42576  10.582   0.254  11.282 -0.1513  0.6403  0.0534
12547PW      WM42577  10.636   0.462  11.412 -0.1337  0.2284  0.7689
12548PW       W42578   3.088   0.760  12.630 -0.3524 -0.1778  0.1487
12548PW      WP42579   3.100   0.829  12.752  0.4410 -0.1114  0.0569
12548PW      WM42580   3.162   0.701  12.527  0.1311  0.4772  0.0925
12549PW       W42581   0.368   7.758  12.892 -0.0571  0.0281 -0.1308
12549PW      WP42582   0.386   7.897  12.880 -0.3551  0.1177  0.3206
12549PW      WM42583   0.429   7.764  13.018 -0.0431  0.0661 -0.1392
12550PW       W42584   1.878   7.861   0.438 -0.0245 -0.2596  0.3144
12550PW      WP42585   1.796   7.748   0.424  0.1611 -0.3973  0.3275
12550PW      WM42586   1.944   7.940   0.343 -0.2919  0.1805  0.4810
12551PW       W42587   3.877  11.074  12.211  0.3395 -0.1659  0.3400
12551PW      WP42588   3.970  11.102  12.109  0.2345  0.5611  0.4165
12551PW      WM42589   3.912  11.027  12.338  0.1638  0.1514  0.5107
12552PW       W42590   7.554  10.989   1.059 -0.1147 -0.0911  0.4270
12552PW      WP42591   7.540  10.948   1.192 -0.3695 -0.3103  0.3371
12552PW      WM42592   7.469  10.900   0.992  0.5183 -0.3679 -0.0612
12553PW       W42593   8.768   1.202   4.498 -0.1016 -0.2755  0.0014
12553PW      WP42594   8.707   1.107   4.416 -0.0840 -0.0685 -0.2560
12553PW      WM42595   8.714   1.329   4.474 -0.1085 -0.3119 -0.1782
12554PW       W42596   0.007   5.213   4.215 -0.1606 -0.0035  0.2197
12554PW      WP42597  -0.082   5.104   4.221 -0.2727  0.0535 -0.2186
12554PW      WM42598   0.112   5.207   4.307 -0.1210 -0.0242  0.1737
12555PW       W42599   7.055  10.829   1.187  0.3163 -0.3583 -0.0908
12555PW      WP42600   7.146  10.936   1.185  0.2202 -0.2691  0.1498
12555PW      WM42601   6.971  10.719   1.165  0.3096 -0.2960 -0.4018
12556PW       W42602   8.068   9.508  11.866 -0.1173  0.7733  0.1184
12556PW      WP42603   8.204   9.482  11.883 -0.2022  0.0823 -0.1175
12556PW      WM42604   8.189   9.465  11.920  0.0431  0.4323 -0.4714
12557PW       W42605   4.526  11.639  12.266  0.0380 -0.0746  0.0550
12557PW      WP42606   4.509  11.514  12.205  0.0065  0.1474 -0.4104
12557PW      WM42607   4.450  11.729  12.191  0.0425 -0.0129  0.1232
12558PW       W42608   2.093  10.064  12.378  0.1975  0.0727 -0.0540
12558PW      WP42609   2.022  10.132  12.278  0.0830 -0.0709 -0.0731
12558PW      WM42610   2.007   9.973  12.442  0.1533  0.0002 -0.2151
12559PW       W42611   8.700  10.032   4.068  0.1367  0.1024  0.1407
12559PW      WP42612   8.763   9.984   3.953  0.0173  0.4878 -0.0924
12559PW      WM42613   8.625   9.916   4.095 -0.0445  0.1828 -0.0072
12560PW       W42614  10.989   3.342   0.360  0.0040  0.1056 -0.3180
12560PW      WP42615  11.108   3.383   0.299  0.3112  0.1234  0.2586
12560PW      WM42616  10.950   3.469   0.404  0.3711  0.0072  0.3558
12561PW       W42617   1.102   9.975  12.421  0.0695 -0.2094  0.1149
12561PW      WP42618   1.033   9.929  12.308 -0.4865  0.8466 -0.0423
12561PW      WM42619   1.151  10.105  12.442  0.1208 -0.2845  0.5094
12562PW       W42620   2.817   1.245   2.767 -0.1401  0.0276 -0.0388
12562PW      WP42621   2.811   1.139   2.675  0.5269  0.0157 -0.0878
12562PW      WM42622   2.730   1.354   2.754  0.0158  0.1311 -0.2452
12563PW       W42623   3.287   9.034   0.909 -0.2325  0.2454  0.3337
12563PW      WP42624   3.405   9.014   0.836 -0.3208 -0.0468  0.2663
12563PW      WM42625   3.347   9.160   0.896  0.1901  0.0121 -0.1723
12564PW       W42626   0.868   8.449   1.380 -0.3892  0.1460  0.1984
12564PW      WP42627   0.826   8.569   1.321  0.2473 -0.0083 -0.6714
12564PW      WM42628   0.799   8.327   1.383 -0.1298 -0.0057  0.7877
12565PW       W42629   3.119   3.153   9.347 -0.2244 -0.3115  0.7189
12565PW      WP42630   3.051   3.038   9.303 -0.1400  0.0638 -0.6300
12565PW      WM42631   2.990   3.204   9.327 -0.0191 -0.0616 -0.1979
12566PW       W42632   2.601  11.014   4.071 -0.0249 -0.3918 -0.3712
12566PW      WP42633   2.703  10.952   3.998  0.3122 -0.0021 -0.2557
12566PW      WM42634   2.606  10.885   4.018 -0.1882 -0.4654 -0.2126
12567PW       W42635   4.278   0.046  11.015 -0.3619  0.4468 -0.0792
12567PW      WP42636   4.147  -0.002  11.028 -0.1339 -0.1077  0.3517
12567PW      WM42637   4.300   0.108  11.138 -0.0756  0.2543 -0.0289
12568PW       W42638   9.307   2.420  13.163 -0.0630  0.2451  0.2104
12568PW      WP42639   9.357   2.327  13.254  0.2826 -0.1146 -0.3146
12568PW      WM42640   9.409   2.381  13.075 -0.4433  0.2519 -0.2591
12569PW       W42641  10.467   8.724   1.290 -0.0535 -0.0610 -0.1034
12569PW      WP42642  10.372   8.644   1.355  0.1710 -0.3221 -0.0895
12569PW      WM42643  10.382   8.764   1.394  0.0190 -0.2001  0.0084
12570PW       W42644  10.733   0.165  13.288  0.1395 -0.2487  0.1603
12570PW      WP42645  10.658   0.120  13.397  0.0472 -0.1933  0.1203
12570PW      WM42646  10.816   0.266  13.340  0.4478 -0.2472 -0.3000
12571PW       W42647   2.030   7.031   1.925 -0.0106 -0.3722 -0.1377
12571PW      WP42648   2.141   6.948   1.938  0.2427 -0.0523 -0.1936
12571PW      WM42649   1.986   7.148   1.861 -0.1528 -0.1541  0.3293
12572PW       W42650   7.532   4.799  10.902 -0.5569 -0.4695  0.4528
12572PW      WP42651   7.556   4.712  10.795 -0.1768  0.1449  0.0042
12572PW      WM42652   7.486   4.909  10.975 -0.0200  0.3011 -0.2730
12573PW       W42653   9.488  11.244  13.064  0.3403  0.1600  0.0127
12573PW      WP42654   9.413  11.319  12.972 -0.2266 -0.6374 -0.2310
12573PW      WM42655   9.465  11.291  13.194 -0.0360  0.1487 -0.0422
12574PW       W42656   5.623   0.112   4.668 -0.3401  0.1161  0.1329
12574PW      WP42657   5.630   0.153   4.535  0.4770 -0.1254  0.0755
12574PW      WM42658   5.523   0.040   4.736 -0.1828 -0.0852  0.1560
12575PW       W42659  10.129   4.896   3.893  0.2834  0.1147  0.3563
12575PW      WP42660  10.147   4.985   3.787 -0.2831  0.7287  0.7415
12575PW      WM42661  10.093   4.761   3.895 -0.0755  0.1842 -0.2890
12576PW       W42662   8.219  10.392   2.264 -0.3583  0.0742 -0.2442
12576PW      WP42663   8.333  10.439   2.198  0.0178 -0.3429  0.0741
12576PW      WM42664   8.197  10.287   2.174 -0.0745 -0.1817 -0.0225
12577PW       W42665   9.996   1.399   0.213  0.2227 -0.4073  0.0025
12577PW      WP42666  10.082   1.423   0.105 -0.0695  0.1651 -0.1272
12577PW      WM42667   9.956   1.269   0.179 -0.1597 -0.2243 -0.2894
12578PW       W42668   2.261  12.006  10.986  0.0877 -0.0541  0.1435
12578PW      WP42669   2.183  12.013  11.102  0.1651 -0.6360  0.2461
12578PW      WM42670   2.135  12.014  10.925  0.0536 -0.3203  0.1726
12579PW       W42671   6.316   9.321  10.140  0.2507  0.2967 -0.1544
12579PW      WP42672   6.206   9.292  10.221  0.7052 -0.0073  0.3911
12579PW      WM42673   6.282   9.281  10.010  0.2416 -0.4313  0.0531
12580PW       W42674   3.822   9.601   0.481 -0.2636  0.1038 -0.2022
12580PW      WP42675   3.752   9.525   0.387 -0.2960 -0.0009 -0.0956
12580PW      WM42676   3.735   9.710   0.495 -0.0571  0.2706 -0.2010
12581PW       W42677   9.997   5.008   4.424 -0.0977  0.0419 -0.3917
12581PW      WP42678  10.026   5.143   4.402 -0.2987  0.2097  0.2493
12581PW      WM42679   9.861   4.974   4.433 -0.0796  0.0535  0.0348
12582PW       W42680  10.578   1.037   0.492 -0.0396  0.4870  0.0829
12582PW      WP42681  10.699   1.106   0.476 -0.0044  0.4648  0.2419
12582PW      WM42682  10.503   0.922   0.519  0.1747  0.2213 -0.3705
12583PW       W42683   3.363  11.542   1.443 -0.1763  0.1301 -0.2874
12583PW      WP42684   3.399  11.643   1.532  0.6143 -0.5703  0.2687
12583PW      WM42685   3.312  11.487   1.324  0.4947  0.0920 -0.5833
12584PW       W42686   9.332   8.604   8.920  0.3395 -0.4435 -0.8455
12584PW      WP42687   9.268   8.691   8.832  0.0166  0.2415 -0.0071
12584PW      WM42688   9.321   8.468   8.888 -0.0764 -0.7383  0.3119
12585PW       W42689   7.890   4.331   9.098  0.4076 -0.2933 -0.4081
12585PW      WP42690   7.774   4.262   9.059  0.5013 -0.5346 -0.2680
12585PW      WM42691   7.952   4.455   9.115 -0.3899  0.0339  0.6146
12586PW       W42692  11.040   6.247  10.896  0.3640  0.3242 -0.3380
12586PW      WP42693  10.962   6.240  10.780 -0.1840 -0.2816  0.0309
12586PW      WM42694  11.019   6.259  11.034  0.1682  0.0544 -0.3390
12587PW       W42695   8.086   9.943   0.828 -0.2526 -0.0912  0.2222
12587PW      WP42696   8.003   9.975   0.936  0.1428 -0.1189  0.5478
12587PW      WM42697   7.979   9.915   0.743  0.3863 -0.1240 -0.6327
12588PW       W42698  10.993  10.246   0.835 -0.0059  0.3231  0.1433
12588PW      WP42699  11.046  10.122   0.871 -0.0749  0.2616  0.0360
12588PW      WM42700  11.039  10.365   0.893  0.3368  0.3951 -0.2448
12589PW       W42701   0.910   1.188  -0.033  0.1059  0.1355  0.2453
12589PW      WP42702   1.026   1.184   0.045  0.1257 -0.2509  0.2053
12589PW      WM42703   0.864   1.070   0.028  0.1768 -0.1874 -0.2953
12590PW       W42704   7.655   5.288   1.478  0.3117  0.4262  0.1141
12590PW      WP42705   7.640   5.410   1.412 -0.0822  0.4306  0.2008
12590PW      WM42706   7.536   5.305   1.549  0.5279 -0.0654  0.6376
12591PW       W42707   4.645   9.881   0.055 -0.1794 -0.2590 -0.1768
12591PW      WP42708   4.736   9.786   0.104  0.0254  0.1391  0.2559
12591PW      WM42709   4.532   9.884   0.137  0.1082  0.1884  0.2315
12592PW       W42710   0.512   3.691  13.349  0.3853  0.3682 -0.1150
12592PW      WP42711   0.542   3.782  13.246 -0.2123  0.3522 -0.3218
12592PW      WM42712   0.556   3.619  13.460  0.4785 -0.0761 -0.4242
12593PW       W42713   0.176   7.983   3.701 -0.3482 -0.1129 -0.2862
12593PW      WP42714   0.077   7.973   3.800  0.1571 -0.0846  0.2513
12593PW      WM42715   0.060   8.040   3.648 -0.4047 -0.2289 -0.2882
12594PW       W42716   7.869   4.198   2.454 -0.4288 -0.0151  0.0053
12594PW      WP42717   7.996   4.216   2.510 -0.2891 -0.0661 -0.2902
12594PW      WM42718   7.832   4.149   2.580 -0.5527  0.1403  0.0303
12595PW       W42719  11.687   1.655   3.757 -0.0410 -0.2973 -0.0801
12595PW      WP42720  11.766   1.601   3.860 -0.0808  0.1614  0.2047
12595PW      WM42721  11.547   1.659   3.757 -0.0495  0.6907  0.2424
12596PW       W42722   0.696   1.305   1.006 -0.2132  0.2105 -0.1401
12596PW      WP42723   0.618   1.197   0.961 -0.1770 -0.0581  0.3993
12596PW      WM42724   0.734   1.340   1.136 -0.2054  0.3213 -0.1718
12597PW       W42725   4.116   5.671   1.084 -0.4759  0.1284  0.0348
12597PW      WP42726   4.048   5.557   1.038 -0.4240  0.1546 -0.1113
12597PW      WM42727   4.096   5.603   1.205 -0.1732 -0.0904 -0.0307
12598PW       W42728   8.771   3.038  11.816  0.0478 -0.0223 -0.0190
12598PW      WP42729   8.765   3.014  11.954  0.0064 -0.1568 -0.0436
12598PW      WM42730   8.749   3.097  11.691 -0.2156  0.0938  0.0804
12599PW       W42731   5.159   5.892  11.688  0.1441 -0.1835  0.1561
12599PW      WP42732   5.234   5.821  11.594  0.2122  0.0719  0.0133
12599PW      WM42733   5.278   5.965  11.698  0.3330 -0.4872  0.2140
12600PW       W42734   7.211  10.218  11.241  0.0852 -0.4654  0.0658
12600PW      WP42735   7.342  10.259  11.214 -0.1346  0.1017 -0.2249
12600PW      WM42736   7.162  10.256  11.367  0.3550  0.4072 -0.0568
12601PW       W42737   6.434   9.494  10.594  0.4574 -0.2708  0.1969
12601PW      WP42738   6.519   9.386  10.569  0.0858 -0.4788 -0.2438
12601PW      WM42739   6.403   9.527  10.727  0.0154 -0.1948  0.0841
12602PW       W42740   8.508   4.939   9.178 -0.0385  0.2229  0.0833
12602PW      WP42741   8.437   4.925   9.058  0.0428  0.0860  0.0505
12602PW      WM42742   8.537   5.073   9.204  0.0981  0.2780 -0.3151
12603PW       W42743   9.134   4.974   8.540 -0.1820  0.2190  0.0626
12603PW      WP42744   9.145   5.096   8.472  0.0559  0.1651  0.0004
12603PW      WM42745   9.027   4.970   8.450 -0.1011  0.1346 -0.0312
12604PW       W42746  10.430   9.730  11.248  0.0779 -0.0979  0.4432
12604PW      WP42747  10.491   9.742  11.122 -0.0475 -0.0959  0.3819
12604PW      WM42748  10.365   9.781  11.360 -0.0286 -0.2005  0.4284
12605PW       W42749   0.961   6.563   1.181 -0.5222  0.2268  0.2702
12605PW      WP42750   1.012   6.651   1.084  0.2776  0.3252  0.7349
12605PW      WM42751   0.893   6.486   1.276 -0.0514 -0.2728  0.2300
12606PW       W42752   7.254  11.551  12.523  0.2009  0.2412  0.1390
12606PW      WP42753   7.145  11.513  12.601  0.1120 -0.0178 -0.1022
12606PW      WM42754   7.357  11.542  12.617  0.5013  0.6195 -0.1387
12607PW       W42755   4.747  10.691   8.953  0.0868 -0.0963  0.0362
12607PW      WP42756   4.653  10.787   8.992 -0.2328 -0.3380 -0.1166
12607PW      WM42757   4.625  10.626   8.970 -0.0471  0.1003 -0.1458
12608PW       W42758   6.014   8.343  10.217  0.0727  0.1022  0.2003
12608PW      WP42759   6.009   8.208  10.182  0.2495  0.1186  0.1100
12608PW      WM42760   6.037   8.329  10.080  0.6883 -0.1880  0.3159
12609PW       W42761   2.042   9.598   1.948  0.2227 -0.0177  0.1992
12609PW      WP42762   1.981   9.597   2.074 -0.1661 -0.1536  0.0188
12609PW      WM42763   1.969   9.641   1.836  0.4291  0.2487  0.1617
12610PW       W42764   3.670   9.309   9.583 -0.1733 -0.1635  0.1631
12610PW      WP42765   3.565   9.300   9.491 -0.4379  0.4871  0.3714
12610PW      WM42766   3.659   9.286   9.720  0.5474 -0.4928  0.1873
12611PW       W42767   8.649   1.383  12.798 -0.0636  0.1009 -0.1149
12611PW      WP42768   8.610   1.432  12.923  0.1696  0.3608 -0.1400
12611PW      WM42769   8.574   1.357  12.683 -0.1408  0.0888 -0.0623
12612PW       W42770   0.151   4.232   0.923 -0.0341 -0.1246 -0.3847
12612PW      WP42771   0.087   4.341   0.863  0.1841  0.1745 -0.0935
12612PW      WM42772   0.274   4.228   0.990 -0.0963 -0.0595 -0.2647
12613PW       W42773   1.640  11.688   3.377  0.1741 -0.5333  0.3099
12613PW      WP42774   1.512  11.644   3.343 -0.0857  0.3740 -0.0299
12613PW      WM42775   1.746  11.653   3.292  0.1999 -0.1091  0.1514
12614PW       W42776  10.592   8.543  11.361  0.2708 -0.0637 -0.2395
12614PW      WP42777  10.627   8.576  11.229 -0.0330 -0.4704 -0.4334
12614PW      WM42778  10.640   8.581  11.487  0.4254 -0.1015 -0.2864
12615PW       W42779  10.422  11.224  13.227 -0.0176  0.0329 -0.1392
12615PW      WP42780  10.472  11.101  13.183  0.2336  0.0240  0.1546
12615PW      WM42781  10.349  11.294  13.130 -0.1054 -0.2075 -0.2520
12616PW       W42782   1.545   6.352   3.533 -0.0839 -0.2057 -0.2678
12616PW      WP42783   1.584   6.299   3.410  0.2427 -0.2004 -0.1713
12616PW      WM42784   1.410   6.329   3.558 -0.1155  0.2608  0.0632
12617PW       W42785   7.738   3.233   8.116  0.3548 -0.3788  0.1905
12617PW      WP42786   7.670   3.111   8.123  0.5031 -0.4728  0.0223
12617PW      WM42787   7.744   3.282   8.247  0.0592  0.3408 -0.0408
12618PW       W42788   1.201   5.736   4.214 -0.1319  0.2562  0.2060
12618PW      WP42789   1.325   5.690   4.262 -0.2633 -0.1999  0.1376
12618PW      WM42790   1.309   5.818   4.249 -0.0067  0.3933 -0.4330
12619PW       W42791   5.225   4.989  11.243 -0.0202  0.2498  0.4472
12619PW      WP42792   5.103   4.950  11.299 -0.0503  0.3278  0.4372
12619PW      WM42793   5.340   4.941  11.305  0.2002 -0.0392 -0.1499
12620PW       W42794   9.855   9.857  10.677  0.0175 -0.4496  0.0530
12620PW      WP42795   9.737   9.789  10.647 -0.2988  0.1873 -0.2572
12620PW      WM42796   9.829   9.991  10.708 -0.2710 -0.5443  0.2381
12621PW       W42797   9.802   7.929   0.617  0.0952  0.2392  0.3810
12621PW      WP42798   9.689   7.960   0.540  0.3305  0.0104 -0.0830
12621PW      WM42799   9.728   7.864   0.716 -0.4451 -0.1244 -0.2171
12622PW       W42800   8.899   1.223  10.915 -0.4600  0.0620  0.0044
12622PW      WP42801   8.855   1.137  10.814 -0.4565  0.3993 -0.2972
12622PW      WM42802   8.859   1.330  10.997  0.2190  0.1982  0.1848
12623PW       W42803   6.031   1.428   1.055  0.2136 -0.6438  0.1478
12623PW      WP42804   5.934   1.327   1.045  0.3018 -0.7186  0.0296
12623PW      WM42805   6.104   1.545   1.082 -0.5358 -0.1548  0.2090
12624PW       W42806   1.340   7.526  11.612 -0.0470 -0.5045 -0.2135
12624PW      WP42807   1.462   7.495  11.674 -0.1376  0.1243  0.3349
12624PW      WM42808   1.460   7.534  11.539 -0.1253  0.0578 -0.3025
12625PW       W42809  11.903   2.248   3.181  0.0394 -0.5515 -0.1648
12625PW      WP42810  11.857   2.180   3.294  0.3130 -0.0681  0.2579
12625PW      WM42811  12.004   2.161   3.141  0.4207 -0.0799 -0.2805
12626PW       W42812  11.819   7.477  11.928 -0.1073  0.2901  0.0337
12626PW      WP42813  11.738   7.574  11.987 -0.1855  0.1571  0.1492
12626PW      WM42814  11.716   7.460  11.835  0.1740 -0.0928 -0.2288
12627PW       W42815   6.795   3.307   8.280 -0.2147 -0.1546  0.0646
12627PW      WP42816   6.891   3.254   8.367 -0.1440 -0.2963 -0.0959
12627PW      WM42817   6.923   3.314   8.336  0.2768 -0.1817 -0.9398
12628PW       W42818   2.816   3.963   9.748  0.1332  0.3211 -0.1767
12628PW      WP42819   2.724   3.862   9.782  0.6078 -0.0592  0.0288
12628PW      WM42820   2.802   4.054   9.854  0.2897 -0.2023  0.3156
12629PW       W42821  10.391   3.944   2.920 -0.1754 -0.2474 -0.0793
12629PW      WP42822  10.446   3.816   2.931  0.2717 -0.0467  0.1790
12629PW      WM42823  10.472   3.861   2.998 -0.0657 -0.2765 -0.2224
12630PW       W42824  11.881  11.814  11.241  0.4792  0.0736 -0.3765
12630PW      WP42825  11.908  11.831  11.104  0.1245 -0.6094 -0.5549
12630PW      WM42826  11.888  11.858  11.374  0.5835  0.1796 -0.4161
12631PW       W42827  12.068   9.206   9.967  0.2069 -0.1440  0.5559
12631PW      WP42828  12.109   9.338   9.944 -0.1830 -0.1269 -0.2067
12631PW      WM42829  11.940   9.259   9.990  0.0574 -0.0078 -0.3836
12632PW       W42830   6.934   2.580   1.720  0.1278 -0.0188  0.0396
12632PW      WP42831   7.042   2.664   1.747  0.2315 -0.0696 -0.2047
12632PW      WM42832   6.998   2.456   1.712  0.0053 -0.0700 -0.2018
12633PW       W42833  12.046   8.420  11.858  0.1212  0.5210 -0.0920
12633PW      WP42834  12.035   8.488  11.979 -0.2292  0.2220  0.0523
12633PW      WM42835  12.182   8.417  11.823  0.1287 -0.1234 -0.0765
12634PW       W42836   5.288  11.962  13.361  0.2806 -0.2474  0.2440
12634PW      WP42837   5.377  11.983  13.255  0.1624  0.0336  0.1951
12634PW      WM42838   5.244  11.869  13.267 -0.0903  0.0168  0.1430
12635PW       W42839  10.534   2.745   0.533  0.4046 -0.1918 -0.5379
12635PW      WP42840  10.663   2.795   0.549  0.2817 -0.0620  0.2288
12635PW      WM42841  10.463   2.635   0.582 -0.1876  0.3209 -0.1696
12636PW       W42842   8.281   2.340  10.408 -0.0392  0.2523  0.0496
12636PW      WP42843   8.197   2.254  10.481 -0.1172 -0.0397 -0.3663
12636PW      WM42844   8.402   2.403  10.435  0.0549 -0.0759  0.4465
12637PW       W42845   4.254   1.308   3.157  0.2745 -0.1227 -0.3816
12637PW      WP42846   4.325   1.207   3.222  0.2481 -0.1553 -0.4030
12637PW      WM42847   4.175   1.198   3.193  0.0151  0.1871  0.0406
12638PW       W42848   3.944   5.016   1.933  0.2192 -0.0428  0.0009
12638PW      WP42849   3.999   4.889   1.955  0.0370 -0.1789 -0.2964
12638PW      WM42850   3.877   4.969   1.819 -0.0075 -0.1317  0.1676
12639PW       W42851   9.078   1.635   0.270  0.0257 -0.1113  0.2390
12639PW      WP42852   8.976   1.554   0.322 -0.2435 -0.0986 -0.2396
12639PW      WM42853   9.050   1.659   0.134 -0.0033  0.6863  0.3614
12640PW       W42854   5.685   2.692   0.284 -0.2846  0.0039  0.4279
12640PW      WP42855   5.758   2.583   0.236  0.2594  0.5503 -0.0718
12640PW      WM42856   5.753   2.713   0.405 -0.4364  0.1617  0.4894
12641PW       W42857   9.313   5.628   4.016 -0.3447  0.0973  0.3836
12641PW      WP42858   9.359   5.581   4.140  0.0343 -0.1976  0.1437
12641PW      WM42859   9.203   5.654   3.934 -0.0666  0.0962 -0.0049
12642PW       W42860  11.790   6.230  12.385 -0.3028  0.0468  0.4414
12642PW      WP42861  11.709   6.307  12.301 -0.0157 -0.1544 -0.0369
12642PW      WM42862  11.907   6.241  12.462  0.2716  0.0807 -0.3734
12643PW       W42863   5.543   8.830  12.235  0.2890  0.6900 -0.0057
12643PW      WP42864   5.669   8.798  12.287  0.1553 -0.3679 -0.2001
12643PW      WM42865   5.431   8.852  12.153  0.1805 -0.1224 -0.1190
12644PW       W42866   4.530   6.225   5.343 -0.3584 -0.0472  0.1446
12644PW      WP42867   4.572   6.151   5.231  0.1031  0.4307 -0.0173
12644PW      WM42868   4.450   6.321   5.280 -0.1047  0.0754  0.0011
12645PW       W42869  10.568   1.803   3.169  0.0494  0.1523 -0.1002
12645PW      WP42870  10.665   1.708   3.136  0.0078  0.1645 -0.2643
12645PW      WM42871  10.485   1.695   3.136  0.2771 -0.0395 -0.0576
12646PW       W42872   1.776   0.983   1.834  0.0177 -0.1482 -0.1030
12646PW      WP42873   1.667   1.070   1.832  0.2589  0.1911  0.4127
12646PW      WM42874   1.797   1.084   1.929 -0.0196 -0.0991 -0.1465
12647PW       W42875   3.346   9.117  11.241 -0.3822  0.1143 -0.6633
12647PW      WP42876   3.241   9.169  11.318 -0.0228  0.3783 -0.3305
12647PW      WM42877   3.273   9.003  11.205  0.3507 -0.8649  0.5430
12648PW       W42878   6.329  12.105   8.610  0.4107 -0.2449 -0.0201
12648PW      WP42879   6.412  12.209   8.568  0.6260 -0.4362 -0.0784
12648PW      WM42880   6.429  12.119   8.706 -0.1258  0.0329  0.5291
12649PW       W42881   2.854  10.698   3.142  0.0815 -0.1900  0.0157
12649PW      WP42882   2.895  10.723   3.274  0.1261  0.0368 -0.0394
12649PW      WM42883   2.741  10.659   3.215 -0.2072  0.0675 -0.2790
12650PW       W42884  11.994   3.131  11.134 -0.4271 -0.0998 -0.4407
12650PW      WP42885  11.931   3.256  11.131  0.2844  0.3048  0.0033
12650PW      WM42886  11.967   3.116  11.271  0.1600  0.4453 -0.2432
12651PW       W42887  11.467   7.078   3.056  0.4699 -0.1692  0.0261
12651PW      WP42888  11.384   7.001   2.973  0.1360  0.3142 -0.1140
12651PW      WM42889  11.336   7.118   3.087  0.4883  0.1752 -0.3045
12652PW       W42890   6.328   0.754   1.995 -0.4438 -0.4056 -0.2466
12652PW      WP42891   6.443   0.697   1.939 -0.0674  0.3655 -0.3301
12652PW      WM42892   6.212   0.742   2.072 -0.3379 -0.2942 -0.0686
12653PW       W42893  11.038   1.599   9.997  0.2884  0.1275 -0.2961
12653PW      WP42894  10.921   1.522  10.000  0.2600  0.1614  0.5008
12653PW      WM42895  11.109   1.484  10.031  0.1576  0.0025 -0.4369
12654PW       W42896  11.097   9.088  11.873  0.1979  0.3755  0.0312
12654PW      WP42897  11.184   8.979  11.861  0.0683  0.2443  0.2405
12654PW      WM42898  11.204   9.102  11.784 -0.0189  0.2417 -0.2627
12655PW       W42899  11.031  11.233   1.269  0.0568  0.1251 -0.0859
12655PW      WP42900  10.942  11.327   1.322 -0.2261 -0.1895  0.0172
12655PW      WM42901  11.049  11.147   1.159  0.3894  0.4793 -0.3196
12656PW       W42902   5.713   8.433  11.901  0.2816 -0.0890 -0.2676
12656PW      WP42903   5.838   8.392  11.854  0.5868  0.0977  0.3312
12656PW      WM42904   5.660   8.440  11.772  0.1900  0.3623 -0.2163
12657PW       W42905   6.963  10.944   2.420  0.2707 -0.3658  0.0498
12657PW      WP42906   7.082  10.882   2.458  0.2839 -0.4008 -0.0459
12657PW      WM42907   6.950  10.966   2.282  0.0456  0.1301  0.1396
12658PW       W42908   9.080   2.343  12.310  0.1852 -0.0918 -0.1133
12658PW      WP42909   9.193   2.354  12.392  0.0951 -0.0641  0.0083
12658PW      WM42910   9.093   2.208  12.277 -0.5631 -0.3090  0.3570
12659PW       W42911   6.614   4.281   8.863 -0.4222  0.2058 -0.0898
12659PW      WP42912   6.729   4.248   8.791 -0.2790  0.0089  0.2159
12659PW      WM42913   6.610   4.141   8.862  0.5289  0.1452 -0.2023
12660PW       W42914   4.643   9.356   2.066  0.5122 -0.2049 -0.1789
12660PW      WP42915   4.678   9.223   2.088  0.7236 -0.0921  0.2141
12660PW      WM42916   4.774   9.379   2.108  0.3506  0.1313  0.1685
12661PW       W42917  10.956   1.736   3.400  0.3802  0.3848  0.1565
12661PW      WP42918  11.026   1.748   3.279  0.0461 -0.0479 -0.0939
12661PW      WM42919  10.818   1.753   3.392  0.3975  0.6396  0.3491
12662PW       W42920   5.758  10.102  12.163 -0.0069  0.1551 -0.1592
12662PW      WP42921   5.637  10.057  12.217 -0.1942 -0.1575 -0.7850
12662PW      WM42922   5.868  10.133  12.081  0.1960  0.0003  0.0478
12663PW       W42923   1.395   9.399   0.746 -0.5213 -0.3212 -0.6424
12663PW      WP42924   1.373   9.527   0.693 -0.6589 -0.1932 -0.2928
12663PW      WM42925   1.517   9.337   0.718 -0.0769  0.3548 -0.3510
12664PW       W42926   9.037   7.079   9.028  0.0379 -0.1712 -0.2057
12664PW      WP42927   8.924   7.082   8.945 -0.2293  0.2637  0.1561
12664PW      WM42928   9.067   7.085   9.164  0.6420  0.2248 -0.3334
12665PW       W42929  11.675   7.635   9.455  0.0323 -0.0658  0.6490
12665PW      WP42930  11.679   7.775   9.454  0.2726 -0.0210 -0.6440
12665PW      WM42931  11.577   7.712   9.391  0.1367 -0.0995  0.4467
12666PW       W42932   5.130   3.536  10.972  0.5390  0.0109 -0.2709
12666PW      WP42933   5.019   3.530  10.887  0.2073 -0.1203  0.1569
12666PW      WM42934   5.075   3.412  10.936  0.0513 -0.1066  0.7122
12667PW       W42935   5.422  11.229   0.403  0.0930  0.2695 -0.1653
12667PW      WP42936   5.339  11.257   0.293  0.3401 -0.1176 -0.4643
12667PW      WM42937   5.549  11.212   0.347  0.1944  0.0442  0.1208
12668PW       W42938  10.145  11.481  11.965 -0.3465  0.0667 -0.5769
12668PW      WP42939  10.091  11.608  11.991  0.2508  0.1501  0.5793
12668PW      WM42940  10.053  11.465  11.861 -0.0293  0.3020 -0.9064
12669PW       W42941   1.576   9.519  10.898  0.2459 -0.1603 -0.0021
12669PW      WP42942   1.584   9.535  10.759  0.0522  0.2774  0.0291
12669PW      WM42943   1.598   9.651  10.858 -0.0459 -0.0118  0.3001
12670PW       W42944   8.868   2.092   2.550 -0.3338 -0.1163  0.0187
12670PW      WP42945   8.893   2.118   2.686  0.5380 -0.2130 -0.0976
12670PW      WM42946   8.764   1.999   2.540 -0.1550 -0.3047 -0.1048
12671PW       W42947   5.365   0.869   2.657  0.3532  0.1032 -0.2247
12671PW      WP42948   5.371   0.974   2.564 -0.3026  0.4784  0.1230
12671PW      WM42949   5.323   0.927   2.778  0.2291  0.1625 -0.2955
12672PW       W42950   6.522   4.559   0.107  0.3582 -0.1400 -0.2325
12672PW      WP42951   6.552   4.446   0.185 -0.2315 -0.1651 -0.0211
12672PW      WM42952   6.412   4.634   0.065  0.4475  0.1281 -0.0100
12673PW       W42953   3.190   1.548   2.783  0.1715  0.0850  0.1611
12673PW      WP42954   3.134   1.673   2.811 -0.6061 -0.1731 -0.1164
12673PW      WM42955   3.265   1.487   2.682 -0.2418 -0.1268 -0.0300
12674PW       W42956   5.361   4.599   2.971  0.2057  0.2141  0.0199
12674PW      WP42957   5.335   4.727   2.919  0.4130  0.3166  0.1593
12674PW      WM42958   5.466   4.644   3.052 -0.0195 -0.0554  0.4756
12675PW       W42959   3.303   3.748   1.130  0.0151  0.1869  0.1370
12675PW      WP42960   3.188   3.801   1.071  0.0460 -0.0770 -0.1762
12675PW      WM42961   3.364   3.754   1.256  0.2323 -0.7658  0.1185
12676PW       W42962   3.770  10.487   0.190 -0.2682  0.2175 -0.1315
12676PW      WP42963   3.805  10.373   0.263 -0.0961  0.5658  0.3547
12676PW      WM42964   3.706  10.459   0.069 -0.0354 -0.4067 -0.1273
12677PW       W42965   3.323  10.934   9.763 -0.0761  0.2251  0.2735
12677PW      WP42966   3.313  10.797   9.790 -0.3322  0.1715 -0.0645
12677PW      WM42967   3.240  11.046   9.774  0.2883  0.4771  0.6064
12678PW       W42968   9.815   8.023  12.745  0.0583 -0.1396  0.0940
12678PW      WP42969   9.758   7.895  12.732  0.4339 -0.3150  0.1036
12678PW      WM42970   9.928   8.100  12.715 -0.2372  0.4042  0.3059
12679PW       W42971   6.455   1.585  13.116  0.0068 -0.4402 -0.0435
12679PW      WP42972   6.363   1.690  13.107 -0.0868 -0.4446  0.5892
12679PW      WM42973   6.571   1.567  13.193 -0.1328  0.3430  0.4053
12680PW       W42974   6.621   8.110   2.144 -0.1775 -0.0555  0.1979
12680PW      WP42975   6.568   8.239   2.132  0.4556  0.2466  0.4400
12680PW      WM42976   6.736   8.068   2.212 -0.1832  0.6299  0.6844
12681PW       W42977  10.947   8.956  13.208  0.1359 -0.2331  0.1188
12681PW      WP42978  11.039   8.989  13.107 -0.2694  0.7395  0.0068
12681PW      WM42979  10.995   9.034  13.314 -0.0700  0.0913 -0.0179
12682PW       W42980   8.012   5.315   9.368  0.1395 -0.3074 -0.2764
12682PW      WP42981   8.085   5.376   9.266 -0.2153  0.1435 -0.2742
12682PW      WM42982   7.897   5.237   9.382 -0.1503  0.1011 -0.2959
12683PW       W42983   4.111   3.383  11.841 -0.2015 -0.4164 -0.2154
12683PW      WP42984   4.198   3.429  11.741  0.4476  0.3115  0.5928
12683PW      WM42985   3.993   3.336  11.782 -0.3775 -0.4176  0.1257
12684PW       W42986   5.787   9.419  10.976  0.0705 -0.3094  0.0265
12684PW      WP42987   5.715   9.460  11.089 -0.1307 -0.2408 -0.1234
12684PW      WM42988   5.808   9.514  10.875  0.3832 -0.7130 -0.3065
12685PW       W42989   2.443   6.913   2.142 -0.2658  0.0229 -0.0276
12685PW      WP42990   2.434   6.875   2.007  0.0534 -0.4242  0.0632
12685PW      WM42991   2.322   6.843   2.127 -0.2407 -0.0404  0.0566
12686PW       W42992  11.531  10.651   0.931  0.1871 -0.0992  0.3943
12686PW      WP42993  11.453  10.537   0.949  0.2158 -0.1025  0.5042
12686PW      WM42994  11.455  10.688   1.042 -0.0762  0.0993  0.1546
12687PW       W42995  11.424   1.522   4.666 -0.4445 -0.1920  0.0255
12687PW      WP42996  11.420   1.486   4.531 -0.0654 -0.4880  0.0840
12687PW      WM42997  11.505   1.634   4.646  0.2449 -0.6351  0.1559
12688PW       W42998   3.689   3.536  13.203 -0.0104  0.1461  0.5035
12688PW      WP42999   3.583   3.497  13.286 -0.2780  0.1592  0.1791
12688PW      WM43000   3.810   3.489  13.256  0.2347  0.2888  0.0891
12689PW       W43001  10.991  10.225   4.738 -0.1230  0.1418  0.3364
12689PW      WP43002  10.982  10.091   4.777  0.0096 -0.1284 -0.4668
12689PW      WM43003  11.057  10.232   4.615 -0.0512 -0.3359  0.3397
12690PW       W43004   7.436   8.865  11.521 -0.1616 -0.1574  0.1902
12690PW      WP43005   7.347   8.959  11.575 -0.0188 -0.0357  0.2152
12690PW      WM43006   7.554   8.862  11.596 -0.0959  0.0806  0.1022
12691PW       W43007   2.895   4.994   8.796 -0.1276 -0.2612 -0.0438
12691PW      WP43008   2.985   5.066   8.717 -0.0463 -0.5117 -0.1847
12691PW      WM43009   2.928   4.903   8.897  0.0502  0.0198  0.1594
12692PW       W43010   3.299   3.989   8.522  0.2666 -0.5392  0.3441
12692PW      WP43011   3.194   3.897   8.510  0.0646 -0.3221  0.4077
12692PW      WM43012   3.357   4.019   8.645 -0.1406 -0.0006  0.4255
12693PW       W43013   4.200  11.290  11.976 -0.3562 -0.1830 -0.0005
12693PW      WP43014   4.258  11.418  11.983  0.9703 -0.7133  0.1306
12693PW      WM43015   4.089  11.226  12.030  0.0729 -0.7310  0.2835
12694PW       W43016   7.652   3.600   9.067  0.0321  0.1047  0.0073
12694PW      WP43017   7.552   3.622   8.972 -0.1897 -0.6371  0.0356
12694PW      WM43018   7.593   3.645   9.185  0.1229 -0.0616  0.1194
12695PW       W43019   7.856   8.784   1.737  0.2288 -0.1008 -0.2050
12695PW      WP43020   7.963   8.818   1.820 -0.1331  0.1236  0.1858
12695PW      WM43021   7.778   8.672   1.767  0.0564 -0.0570 -0.4693
12696PW       W43022   0.763   2.717   2.280 -0.1773  0.2246  0.1464
12696PW      WP43023   0.831   2.831   2.234 -0.3083 -0.0204 -0.7450
12696PW      WM43024   0.640   2.654   2.303  0.3070 -0.7753  0.2403
12697PW       W43025  11.147  11.890  13.254  0.2251  0.2803  0.4594
12697PW      WP43026  11.072  11.885  13.136  0.2264  0.0840  0.4645
12697PW      WM43027  11.027  11.962  13.249 -0.2385 -0.4638 -0.0173
12698PW       W43028   7.825   4.713  11.298 -0.3962 -0.0148 -0.0247
12698PW      WP43029   7.769   4.841  11.309 -0.4112 -0.0446  0.3058
12698PW      WM43030   7.805   4.639  11.181  0.3518 -0.0431 -0.1624
12699PW       W43031  10.407   7.795  11.997 -0.0133  0.0308  0.6107
12699PW      WP43032  10.527   7.833  11.937 -0.2276 -0.0684  0.0890
12699PW      WM43033  10.477   7.915  12.008  0.0282  0.0348  0.3470
12700PW       W43034  10.519   2.941  10.482  0.0416  0.5226  0.4075
12700PW      WP43035  10.595   3.038  10.416  0.3581  0.1226  0.1630
12700PW      WM43036  10.651   2.926  10.527  0.1042 -0.0839  0.0732
12701PW       W43037   9.669   9.803   3.824  0.2007 -0.0229 -0.3563
12701PW      WP43038   9.668   9.752   3.693 -0.0626  0.0094 -0.3712
12701PW      WM43039   9.627   9.929   3.869  0.2481 -0.1181 -0.0367
12702PW       W43040   4.474   1.009   0.891  0.3689  0.1525 -0.2019
12702PW      WP43041   4.406   1.006   0.769  0.3575 -0.0504 -0.1931
12702PW      WM43042   4.378   1.002   0.993 -0.0702 -0.1853 -0.6123
12703PW       W43043   6.535   7.383  10.980  0.3876  0.0694  0.1499
12703PW      WP43044   6.467   7.486  11.046 -0.3212 -0.2807  0.0162
12703PW      WM43045   6.563   7.272  11.060  0.2825  0.2204  0.4006
12704PW       W43046   2.911  10.821  13.320  0.3244  0.2119  0.1034
12704PW      WP43047   3.014  10.901  13.270  0.1759  0.4104  0.1096
12704PW      WM43048   2.875  10.700  13.381  0.0992  0.0222 -0.3788
12705PW       W43049   5.797   7.802  10.136 -0.6380 -0.1084  0.7877
12705PW      WP43050   5.688   7.880  10.096  0.1429  0.6879 -0.0235
12705PW      WM43051   5.838   7.806  10.269  0.2980 -0.1135  0.5353
12706PW       W43052   3.161  10.934   4.592 -0.0754 -0.0467  0.1347
12706PW      WP43053   3.191  10.873   4.715 -0.2523 -0.1471  0.1289
12706PW      WM43054   3.045  10.862   4.622 -0.2705  0.2362  0.0755
12707PW       W43055   8.031   6.998   8.929  0.2775  0.2605  0.1965
12707PW      WP43056   8.144   6.956   9.000  0.1851 -0.3502  0.0142
12707PW      WM43057   7.924   6.914   8.962  0.5176 -0.1684 -0.0764
12708PW       W43058   6.278  10.113   0.004  0.2601 -0.3392 -0.3590
12708PW      WP43059   6.325  10.230   0.065 -0.1050 -0.0352 -0.6382
12708PW      WM43060   6.338  10.064   0.121 -0.0202  0.0393 -0.0453
12709PW       W43061   3.849   2.488   4.859  0.2152  0.6383  0.3288
12709PW      WP43062   3.751   2.445   4.949  0.2595 -0.2813 -0.0122
12709PW      WM43063   3.970   2.504   4.928  0.3458  0.4664  0.1478
12710PW       W43064   7.357   9.389  10.036  0.1396 -0.0028 -0.3064
12710PW      WP43065   7.397   9.494   9.952  0.2069  0.3415  0.1326
12710PW      WM43066   7.321   9.254  10.040  0.0598  0.0243  0.0000
12711PW       W43067   8.919   3.734   1.575 -0.4653 -0.0640  0.1805
12711PW      WP43068   8.883   3.858   1.630 -0.3293  0.1350 -0.1609
12711PW      WM43069   8.938   3.665   1.696 -0.2744  0.3659  0.4082
12712PW       W43070   4.519  10.588   1.887  0.4496 -0.3467 -0.5989
12712PW      WP43071   4.593  10.655   1.789  0.1391  0.2000 -0.4784
12712PW      WM43072   4.441  10.480   1.932  0.0751  0.2630  0.3653
12713PW       W43073   0.552   7.701   1.793 -0.0510 -0.1728 -0.1936
12713PW      WP43074   0.437   7.713   1.872  0.1566 -0.2657  0.1321
12713PW      WM43075   0.685   7.673   1.827 -0.0726  0.5285  0.6818
12714PW       W43076   3.132   5.621   4.875 -0.1754 -0.6956  0.0803
12714PW      WP43077   3.091   5.745   4.926  0.4048 -0.4019 -0.1174
12714PW      WM43078   3.230   5.590   4.970 -0.0761  0.2886  0.3548
12715PW       W43079   4.143   5.668   9.794  0.4759 -0.2224  0.5058
12715PW      WP43080   4.233   5.745   9.719 -0.2736 -0.1005 -0.3597
12715PW      WM43081   4.048   5.735   9.871  0.0151  0.4110 -0.5080
12716PW       W43082   7.837   4.193   0.326 -0.1978 -0.1563  0.0839
12716PW      WP43083   7.968   4.152   0.351 -0.2397 -0.3734 -0.0435
12716PW      WM43084   7.786   4.066   0.299  0.3443 -0.3440 -0.1222
12717PW       W43085   5.019   1.598   1.159  0.2146 -0.1313 -0.2524
12717PW      WP43086   4.943   1.712   1.129  0.0084 -0.2138 -0.0587
12717PW      WM43087   5.018   1.723   1.222 -0.0111 -0.0294 -0.4524
12718PW       W43088   5.552   7.383   0.312 -0.0664  0.7868 -0.2575
12718PW      WP43089   5.424   7.432   0.337 -0.4919 -0.2856 -0.0790
12718PW      WM43090   5.549   7.333   0.443 -0.1375  0.1336 -0.4861
12719PW       W43091   3.897   2.321   9.994  0.5366  0.0211  0.3907
12719PW      WP43092   4.028   2.352   9.956  0.2869  0.2649 -0.3711
12719PW      WM43093   3.788   2.408   9.984  0.0162 -0.5898  0.4297
12720PW       W43094   5.067   0.965   3.627  0.3898 -0.1489  0.1282
12720PW      WP43095   5.083   1.006   3.494 -0.7503 -0.2824 -0.1019
12720PW      WM43096   5.049   0.865   3.722 -0.6266 -0.6379 -0.4872
12721PW       W43097   6.101   9.928   2.524  0.4001  0.4386  0.6261
12721PW      WP43098   6.087  10.050   2.592  0.3108  0.4976  0.5034
12721PW      WM43099   6.045   9.859   2.416  0.2455  0.0368  0.9523
12722PW       W43100   8.843   9.260   3.767  0.0226  0.0992  0.1860
12722PW      WP43101   8.936   9.214   3.862  0.1923 -0.4238 -0.2100
12722PW      WM43102   8.747   9.347   3.716  0.3028  0.4850  0.2938
12723PW       W43103  10.777   7.896   1.257 -0.0198 -0.7084 -0.2746
12723PW      WP43104  10.849   7.902   1.137 -0.3266 -0.5491 -0.4551
12723PW      WM43105  10.772   7.926   1.394 -0.0169  0.2008 -0.4483
12724PW       W43106   5.445   6.180  11.468  0.6713 -0.4382  0.3555
12724PW      WP43107   5.562   6.139  11.534  0.9256  0.3701  0.4626
12724PW      WM43108   5.449   6.237  11.341 -0.9026 -0.2363  0.2990
12725PW       W43109   6.103   3.346  12.785 -0.0972  0.1735  0.1113
12725PW      WP43110   6.113   3.261  12.674 -0.0006  0.1785  0.1163
12725PW      WM43111   6.004   3.422  12.720 -0.3914 -0.4196 -0.1710
12726PW       W43112   6.432   0.042   9.179  0.0814  0.0794 -0.2687
12726PW      WP43113   6.478   0.136   9.272  0.6810  0.0555 -0.5184
12726PW      WM43114   6.316   0.085   9.243  0.2635 -0.2574  0.3235
12727PW       W43115   6.227   7.589   2.525  0.2060  0.1272  0.2481
12727PW      WP43116   6.272   7.701   2.454 -0.1504 -0.0074 -0.2147
12727PW      WM43117   6.208   7.464   2.464  0.3301  0.3700 -0.3186
12728PW       W43118  12.063   8.439   1.366  0.0628  0.1308  0.0842
12728PW      WP43119  12.035   8.563   1.425 -0.2587  0.3034 -0.3950
12728PW      WM43120  12.163   8.406   1.274 -0.2111  0.2522 -0.2688
12729PW       W43121   6.687   2.588   1.182  0.3348  0.2973  0.3596
12729PW      WP43122   6.761   2.490   1.114  0.1856  0.1949  0.3436
12729PW      WM43123   6.591   2.632   1.273 -0.2559 -0.3580  0.1003
12730PW       W43124   4.893   2.361   9.108  0.0546 -0.0264  0.0326
12730PW      WP43125   4.807   2.457   9.054 -0.5094 -0.3706  0.2702
12730PW      WM43126   4.935   2.442   9.214 -0.1960 -0.0267  0.1361
12731PW       W43127   9.685   6.553  12.192 -0.3664 -0.4887  0.0686
12731PW      WP43128   9.615   6.526  12.073 -0.2493 -0.2824 -0.0501
12731PW      WM43129   9.737   6.600  12.312  0.1519  0.1415 -0.3700
12732PW       W43130  10.803   0.982  12.643 -0.3811 -0.0897 -0.5212
12732PW      WP43131  10.931   1.008  12.593 -0.4483 -0.0010 -0.6495
12732PW      WM43132  10.755   0.857  12.599  0.1790 -0.4900 -0.0693
12733PW       W43133   1.974   5.037   1.200 -0.0803 -0.1726  0.0877
12733PW      WP43134   1.934   5.029   1.066 -0.1977  0.0864  0.1046
12733PW      WM43135   2.088   4.972   1.248 -0.0808  0.1311  0.5409
12734PW       W43136   9.877   7.559   0.298 -0.0353  0.0301 -0.0140
12734PW      WP43137   9.884   7.531   0.434  0.0371  0.3168  0.0450
12734PW      WM43138   9.961   7.448   0.307 -0.4643 -0.3190 -0.1526
12735PW       W43139  10.030   0.465   3.819 -0.0222 -0.1142 -0.0831
12735PW      WP43140   9.958   0.503   3.705  0.2947  0.0254 -0.2457
12735PW      WM43141  10.099   0.367   3.746 -0.5003 -0.2864 -0.3224
12736PW       W43142   4.604   1.410   9.217 -0.5979  0.7012 -0.5957
12736PW      WP43143   4.671   1.378   9.099 -0.1489  0.0424 -0.1949
12736PW      WM43144   4.616   1.304   9.127  0.2366  0.1568  0.0723
12737PW       W43145   9.484  10.389  11.700  0.2931 -0.2755  0.5376
12737PW      WP43146   9.480  10.252  11.726  0.5907 -0.3862  0.0680
12737PW      WM43147   9.564  10.454  11.605 -0.1086  0.1770  0.4903
12738PW       W43148   0.312  10.151   3.933 -0.4726  0.3171 -0.5033
12738PW      WP43149   0.254  10.155   3.805 -0.1086  0.3033 -0.6781
12738PW      WM43150   0.224  10.244   3.988 -0.1407  0.2578  0.1855
12739PW       W43151   4.931   0.514   9.293 -0.3897  0.2524  0.0940
12739PW      WP43152   4.843   0.540   9.187 -0.1045  0.2367 -0.1547
12739PW      WM43153   4.967   0.596   9.185  0.0608 -0.6232 -0.4771
12740PW       W43154   1.685   4.593   8.733 -0.0874  0.2259  0.3092
12740PW      WP43155   1.593   4.667   8.659  0.5631  0.2641 -0.5339
12740PW      WM43156   1.642   4.556   8.861  0.0604 -0.5484  0.1614
12741PW       W43157   7.290   0.736   1.647  0.0150 -0.2113  0.0463
12741PW      WP43158   7.397   0.649   1.669  0.2073  0.0032 -0.0164
12741PW      WM43159   7.164   0.743   1.585  0.1302  0.3015 -0.1591
12742PW       W43160  10.592   1.789  10.071 -0.4148 -0.1164 -0.3563
12742PW      WP43161  10.485   1.699  10.065 -0.2665 -0.3191 -0.0473
12742PW      WM43162  10.500   1.893  10.094 -0.0977  0.0700  0.1431
12743PW       W43163   2.785   4.520  11.417 -0.1760  0.0808 -0.1972
12743PW      WP43164   2.849   4.642  11.393 -0.5155  0.3440  0.1796
12743PW      WM43165   2.662   4.582  11.436 -0.1937  0.0657 -0.2593
12744PW       W43166  10.374   5.900  12.017  0.2326  0.0883  0.4728
12744PW      WP43167  10.239   5.935  12.023  0.2089  0.1245 -0.0466
12744PW      WM43168  10.406   5.999  11.923 -0.5994 -0.3086 -0.3028
12745PW       W43169   4.756   3.877   0.117  0.1925 -0.0010  0.0424
12745PW      WP43170   4.654   3.786   0.087  0.7179 -0.4745 -0.4412
12745PW      WM43171   4.684   3.958   0.205 -0.0809 -0.1625 -0.0270
12746PW       W43172   2.728   3.871  12.848 -0.1698 -0.2163 -0.5760
12746PW      WP43173   2.853   3.810  12.827  0.2242  0.2068  0.2843
12746PW      WM43174   2.661   3.993  12.862  0.0415 -0.1707  0.2557
12747PW       W43175   1.425   8.190   4.035  0.1464 -0.2312 -0.1001
12747PW      WP43176   1.335   8.085   4.016  0.0786 -0.0449 -1.0355
12747PW      WM43177   1.476   8.064   4.065  0.2076 -0.1406  0.1956
12748PW       W43178   3.480   4.208  10.908 -0.0922  0.0770 -0.5011
12748PW      WP43179   3.539   4.284  11.009 -0.0044  0.0406 -0.5244
12748PW      WM43180   3.380   4.140  10.979  0.2112 -0.1756 -0.3007
12749PW       W43181   0.442   0.919   5.275  0.4808  0.1331  0.0399
12749PW      WP43182   0.349   0.859   5.361  0.0572 -0.2839 -0.6536
12749PW      WM43183   0.568   0.979   5.268  0.3422  0.4474  0.1314
12750PW       W43184  11.790   7.812  10.384 -0.3851  0.1140 -0.0383
12750PW      WP43185  11.748   7.817  10.518  0.0366  0.0814  0.1033
12750PW      WM43186  11.866   7.917  10.438  0.6805 -0.5462 -0.1122
12751PW       W43187  10.489   1.462   0.262  0.3523 -0.3879 -0.3816
12751PW      WP43188  10.592   1.511   0.343  0.0373 -0.3870  0.0345
12751PW      WM43189  10.530   1.445   0.395 -0.3224  0.2266 -0.0610
12752PW       W43190   9.127   1.553   1.160  0.4554 -0.3868  0.1418
12752PW      WP43191   9.214   1.471   1.233  0.5750 -0.5825 -0.2112
12752PW      WM43192   9.165   1.498   1.037  0.1710 -0.1148 -0.0772
12753PW       W43193   6.592  10.160  12.838  0.3740 -0.2959  0.0256
12753PW      WP43194   6.471  10.144  12.770  0.2171  0.3125  0.1299
12753PW      WM43195   6.664  10.056  12.779  0.5741  0.0134 -0.2994
12754PW       W43196  12.031   2.898   2.449  0.5046 -0.0795  0.2614
12754PW      WP43197  11.932   2.811   2.497 -0.3221  0.5046 -0.2395
12754PW      WM43198  12.057   3.025   2.396 -0.0460 -0.0913 -0.0801
12755PW       W43199   7.064   9.067  10.225 -0.1402 -0.3504 -0.0207
12755PW      WP43200   7.180   9.100  10.154 -0.3790 -0.2434 -0.3705
12755PW      WM43201   7.081   8.929  10.240  0.1355 -0.3362 -0.1712
12756PW       W43202   9.023   0.057  10.879 -0.1632  0.5519 -0.1441
12756PW      WP43203   9.082  -0.001  10.766 -0.7775 -0.3988 -0.0383
12756PW      WM43204   9.110   0.148  10.940 -0.3515  0.3799  0.4161
12757PW       W43205  11.580   5.612  11.109 -0.1935 -0.0816  0.2977
12757PW      WP43206  11.503   5.495  11.102 -0.2617 -0.0277  0.1257
12757PW      WM43207  11.701   5.682  11.114  0.0189 -0.3751 -0.2385
12758PW       W43208   5.145   4.067  10.927 -0.1131  0.1377 -0.2032
12758PW      WP43209   5.131   4.050  10.788 -0.4010  0.2137 -0.1856
12758PW      WM43210   5.055   4.007  11.016  0.0349  0.0767 -0.0943
12759PW       W43211   4.733   3.568   2.639  0.1222 -0.2642  0.4082
12759PW      WP43212   4.751   3.581   2.778  0.4648  0.2538  0.3321
12759PW      WM43213   4.793   3.528   2.520  0.4482 -0.0352  0.4870
12760PW       W43214   3.976  11.412  10.390  0.1478  0.1495 -0.0473
12760PW      WP43215   3.862  11.482  10.430  0.0135 -0.3854  0.6035
12760PW      WM43216   4.022  11.536  10.345 -0.1581  0.2911  0.0197
12761PW       W43217   9.545   9.006   1.623 -0.2332  0.0475  0.3783
12761PW      WP43218   9.549   9.012   1.483 -0.4992  0.0112  0.3669
12761PW      WM43219   9.622   9.116   1.662  0.0137  0.0571 -0.1015
12762PW       W43220   9.709   8.917  12.137  0.4172 -0.1743  0.5573
12762PW      WP43221   9.643   8.823  12.217 -0.1492 -0.4241 -0.1452
12762PW      WM43222   9.846   8.887  12.141  0.6156  0.4285 -0.2619
12763PW       W43223   2.424   9.984   3.838 -0.0312  0.1046  0.0920
12763PW      WP43224   2.359   9.867   3.880  0.3135 -0.0102  0.3335
12763PW      WM43225   2.527   9.909   3.897  0.1559 -0.0602 -0.4230
12764PW       W43226   1.916   2.802   4.258  0.2520  0.1154  0.3693
12764PW      WP43227   1.815   2.898   4.273  0.3287  0.2018  0.3348
12764PW      WM43228   2.004   2.824   4.152 -0.1530 -0.2644 -0.0708
12765PW       W43229  11.117   0.451  10.505  0.0590 -0.2320  0.1449
12765PW      WP43230  10.980   0.472  10.491  0.1546  0.2978 -0.1054
12765PW      WM43231  11.229   0.515  10.452 -0.4072  0.3716 -0.1683
12766PW       W43232   0.749  11.493   9.871 -0.4675  0.3755 -0.3466
12766PW      WP43233   0.628  11.464   9.808 -0.4138 -0.2145 -0.2095
12766PW      WM43234   0.704  11.418   9.979 -0.8241  0.4339 -0.4501
12767PW       W43235   3.335  11.741   0.227 -0.5105 -0.1146 -0.4195
12767PW      WP43236   3.304  11.753   0.362 -0.1506 -0.2134 -0.3222
12767PW      WM43237   3.404  11.752   0.105  0.4358 -0.4309  0.0368
12768PW       W43238   5.374   2.009   1.826  0.2451  0.1153 -0.0197
12768PW      WP43239   5.343   1.915   1.925  0.5625  0.0191 -0.0056
12768PW      WM43240   5.327   1.949   1.709 -0.1169 -0.3195  0.3275
12769PW       W43241   1.470   1.180   9.594 -0.1222  0.0513 -0.3348
12769PW      WP43242   1.494   1.099   9.706  0.0281 -0.0663 -0.4502
12769PW      WM43243   1.387   1.278   9.539 -0.1597  0.1644 -0.0845
12770PW       W43244   4.898  12.119   4.009 -0.4587 -0.7354  0.1349
12770PW      WP43245   4.826  12.193   3.914  0.2665  0.3929  0.3674
12770PW      WM43246   4.896  12.047   3.890 -0.1500 -0.1745 -0.2308
12771PW       W43247   3.511   9.447   1.190 -0.1490  0.1818 -0.3433
12771PW      WP43248   3.521   9.506   1.317  0.5438 -0.0924 -0.2455
12771PW      WM43249   3.625   9.389   1.132 -0.0691 -0.3027  0.2527
12772PW       W43250   7.990  12.107  13.313 -0.1859 -0.3627 -0.3111
12772PW      WP43251   7.901  12.211  13.282  0.1876  0.1485  0.2145
12772PW      WM43252   7.883  12.042  13.374 -0.4933  0.0879 -0.3441
12773PW       W43253   4.017   3.389   9.510  0.1599  0.2074  0.3635
12773PW      WP43254   3.944   3.300   9.590  0.4028 -0.2122  0.1324
12773PW      WM43255   3.920   3.306   9.567  0.0172  0.0491 -0.0908
12774PW       W43256   5.304   6.955  12.035  0.1183  0.0541  0.4318
12774PW      WP43257   5.186   6.944  11.962  0.4506  0.5700 -0.2386
12774PW      WM43258   5.285   7.093  12.031  0.1784  0.0584  0.0316
12775PW       W43259   8.707   3.756   3.910 -0.1291 -0.0220  0.1589
12775PW      WP43260   8.755   3.645   3.839 -0.0583  0.1556 -0.0768
12775PW      WM43261   8.762   3.879   3.873  0.2023 -0.1743  0.1283
12776PW       W43262  11.893   8.932   2.992  0.1233 -0.1182  0.2800
12776PW      WP43263  12.025   8.889   2.977 -0.0827 -0.7637  0.1923
12776PW      WM43264  11.866   9.031   3.088 -0.2165 -0.0129  0.0849
12777PW       W43265  10.156   7.288  11.889 -0.2361  0.1588  0.0427
12777PW      WP43266  10.089   7.296  12.011  0.3219 -0.1313  0.3890
12777PW      WM43267  10.129   7.409  11.824 -0.1862  0.0915 -0.1066
12778PW       W43268   9.306   6.103  11.224  0.2889  0.7906  0.0975
12778PW      WP43269   9.215   6.202  11.185 -0.0130  0.3243 -0.4567
12778PW      WM43270   9.342   6.134  11.356  0.8310 -0.1609  0.2161
12779PW       W43271   4.225   2.724  13.101  0.2599 -0.4063 -0.8981
12779PW      WP43272   4.306   2.837  13.120  0.1016 -0.3757 -0.2932
12779PW      WM43273   4.133   2.621  13.078 -0.0677 -0.3711  0.0291
12780PW       W43274   2.987   7.355  13.019  0.2664 -0.0925  0.2159
12780PW      WP43275   3.049   7.322  12.899 -0.5265  0.0825 -0.2833
12780PW      WM43276   2.892   7.422  12.940  0.3812 -0.0186  0.1393
12781PW       W43277  12.036   5.458  11.248  0.0372 -0.1345 -0.5887
12781PW      WP43278  12.168   5.411  11.252  0.0940  0.0471 -0.1413
12781PW      WM43279  12.152   5.537  11.239 -0.1001  0.1229 -0.1950
12782PW       W43280   2.350   5.981   1.148  0.1053 -0.2756  0.1018
12782PW      WP43281   2.423   5.977   1.028 -0.4210  0.1878 -0.2629
12782PW      WM43282   2.420   5.893   1.231 -0.1060  0.0871  0.6990
12783PW       W43283   4.723   6.197  10.901  0.2371  0.0935 -0.1579
12783PW      WP43284   4.727   6.122  10.783 -0.2433 -0.1647 -0.0230
12783PW      WM43285   4.838   6.242  10.836  0.3855 -0.0779 -0.0175
12784PW       W43286  11.967   3.568   8.674 -0.2025  0.0226 -0.0846
12784PW      WP43287  11.890   3.597   8.561 -0.0478  0.8299 -0.0137
12784PW      WM43288  12.071   3.602   8.761 -0.3609 -0.1674  0.1868
12785PW       W43289   4.936   1.399   8.834  0.3531 -0.3297 -0.0953
12785PW      WP43290   4.845   1.487   8.772 -0.0233 -0.6220  0.0206
12785PW      WM43291   5.014   1.451   8.730  0.1139 -0.1152 -0.1738
12786PW       W43292   7.673   6.895   2.940  0.4227 -0.2470 -0.3720
12786PW      WP43293   7.773   6.964   3.011  0.1236 -0.3902  0.2158
12786PW      WM43294   7.534   6.899   2.953  0.4753  0.0173  0.3223
12787PW       W43295   2.149   5.213   9.387 -0.0715  0.0627 -0.4082
12787PW      WP43296   2.075   5.094   9.393  0.4664 -0.2901 -0.2981
12787PW      WM43297   2.275   5.274   9.398 -0.2502  0.3510  0.3365
12788PW       W43298   9.567   3.964   4.610  0.0178  0.2221 -0.3006
12788PW      WP43299   9.520   3.868   4.701 -0.4457  0.2817 -0.4674
12788PW      WM43300   9.664   3.897   4.535 -0.3472 -0.4597 -0.2008
12789PW       W43301  10.306   0.433   2.068 -0.1132 -0.1151 -0.3380
12789PW      WP43302  10.344   0.307   2.117 -0.0837 -0.0307 -0.1371
12789PW      WM43303  10.210   0.532   2.094 -0.1122 -0.1205 -0.3127
12790PW       W43304   7.022   7.893   8.834  0.0230  0.4900  0.3075
12790PW      WP43305   7.040   7.987   8.731 -0.1110  0.1228 -0.0618
12790PW      WM43306   7.146   7.842   8.874 -0.0310  0.4360  0.4051
12791PW       W43307  10.883   3.311  12.308  0.0709  0.1140  0.0981
12791PW      WP43308  10.811   3.319  12.189 -0.3550 -0.0006  0.3364
12791PW      WM43309  11.016   3.329  12.350  0.0609  0.2697  0.0641
12792PW       W43310   8.490   6.646   4.443 -0.2735  0.0629  0.0825
12792PW      WP43311   8.371   6.689   4.504 -0.1698  0.2216  0.1762
12792PW      WM43312   8.549   6.521   4.460 -0.2967  0.0031 -0.2359
12793PW       W43313   0.357   5.324   1.477 -0.3759  0.0155 -0.0644
12793PW      WP43314   0.292   5.447   1.458  0.0216  0.1872 -0.3823
12793PW      WM43315   0.436   5.384   1.378 -0.1372  0.3513  0.3124
12794PW       W43316   8.569   7.009   2.573 -0.0427  0.2038  0.3810
12794PW      WP43317   8.655   6.919   2.636 -0.2065 -0.2062  0.0402
12794PW      WM43318   8.485   6.897   2.579  0.0285  0.1217 -0.0123
12795PW       W43319   5.569   3.280   5.006 -0.3764 -0.1718 -0.1179
12795PW      WP43320   5.641   3.375   5.080 -0.4408 -0.1552 -0.0757
12795PW      WM43321   5.621   3.273   4.876  0.0024 -0.1101  0.0266
12796PW       W43322   4.485   3.078   9.659 -0.1844 -0.2744  0.0279
12796PW      WP43323   4.545   2.990   9.567  0.0822  0.2324 -0.3055
12796PW      WM43324   4.585   3.176   9.650 -0.2622 -0.2344 -0.5309
12797PW       W43325   6.112   1.045  12.525 -0.0988 -0.1960 -0.0036
12797PW      WP43326   6.114   0.946  12.426  0.0121 -0.3810  0.1805
12797PW      WM43327   6.202   0.944  12.558 -0.0505 -0.1796 -0.0854
12798PW       W43328  11.679   9.770   0.668  0.2593 -0.3536  0.3285
12798PW      WP43329  11.609   9.745   0.549  0.4937 -0.2996  0.1742
12798PW      WM43330  11.689   9.742   0.804 -0.0822 -0.2161  0.3856
12799PW       W43331   9.495   9.300  12.441 -0.3708  0.0944 -0.4917
12799PW      WP43332   9.426   9.241  12.547 -0.2809 -0.1138 -0.5459
12799PW      WM43333   9.583   9.195  12.412 -0.0421  0.1703  0.1421
12800PW       W43334  10.701   0.333   5.046 -0.2694  0.2790 -0.3248
12800PW      WP43335  10.585   0.333   5.124 -0.1757  0.1523 -0.1826
12800PW      WM43336  10.724   0.196   5.061 -0.2126  0.2974 -0.2400
12801PW       W43337   6.481   4.232  12.669  0.1421  0.4747  0.2202
12801PW      WP43338   6.584   4.326  12.668  0.1183  0.5105 -0.3801
12801PW      WM43339   6.357   4.294  12.686 -0.2387 -0.0946 -0.2615
12802PW       W43340   8.325   4.076   1.553  0.0743  0.1054 -0.0814
12802PW      WP43341   8.270   3.947   1.547  0.4369 -0.0486 -0.3101
12802PW      WM43342   8.239   4.112   1.449  0.0146  0.0313 -0.0585
12803PW       W43343   5.863   9.864   4.382  0.3368 -0.2540  0.5032
12803PW      WP43344   5.748   9.905   4.450  0.2479 -0.1131  0.2761
12803PW      WM43345   5.820   9.773   4.284  0.1328  0.4587 -0.1233
12804PW       W43346   0.984   7.498  10.707 -0.3798 -0.0251  0.2493
12804PW      WP43347   1.105   7.430  10.727 -0.4191 -0.2113 -0.0981
12804PW      WM43348   0.890   7.600  10.692 -0.3346 -0.0537 -0.3436
12805PW       W43349   1.371   8.424  11.888 -0.4930  0.8013  0.4665
12805PW      WP43350   1.509   8.446  11.894 -0.2826 -0.1414  0.0121
12805PW      WM43351   1.341   8.334  11.990  0.2004 -0.3398 -0.2202
12806PW       W43352   0.178   1.931  11.680 -0.0217  0.1091  0.0017
12806PW      WP43353   0.061   1.930  11.757 -0.1066 -0.1649 -0.1246
12806PW      WM43354   0.174   1.928  11.820  0.0914  0.3983  0.0157
12807PW       W43355   3.253   4.253  13.229  0.2253 -0.3255  0.4533
12807PW      WP43356   3.204   4.355  13.311 -0.1523  0.0827 -0.2294
12807PW      WM43357   3.120   4.226  13.196  0.1723 -0.2364  0.5934
12808PW       W43358  12.141   4.974  10.514 -0.4066 -0.4193  0.1222
12808PW      WP43359  12.022   5.041  10.547  0.1256  0.6710  0.0527
12808PW      WM43360  12.110   5.025  10.388  0.2009  0.1166  0.1603
12809PW       W43361   1.150   3.051   0.886  0.0930 -0.2454 -0.1375
12809PW      WP43362   1.257   3.142   0.891 -0.2468  0.1591  0.0220
12809PW      WM43363   1.155   2.926   0.824  0.2952 -0.3426  0.0639
12810PW       W43364   6.562   2.294   2.591 -0.4662  0.1296 -0.0848
12810PW      WP43365   6.511   2.203   2.684  0.0800 -0.1590 -0.0429
12810PW      WM43366   6.620   2.219   2.487  0.1582 -0.2331  0.4807
12811PW       W43367   4.982   7.048  12.535  0.4400  0.0450  0.2371
12811PW      WP43368   5.092   7.001  12.609  0.4719 -0.5429 -0.1533
12811PW      WM43369   4.845   7.072  12.539  0.4066 -0.0700 -0.0531
12812PW       W43370   3.581   0.345   4.259 -0.1181  0.3269  0.0918
12812PW      WP43371   3.459   0.392   4.207 -0.0126  0.2407 -0.2487
12812PW      WM43372   3.587   0.475   4.310  0.1487  0.5434 -0.4513
12813PW       W43373   7.799   9.592   9.872 -0.0598 -0.1369 -0.0713
12813PW      WP43374   7.924   9.650   9.850  0.0410 -0.3243 -0.0065
12813PW      WM43375   7.799   9.455   9.904 -0.0513 -0.1171  0.0166
12814PW       W43376  12.000   0.394  11.946 -0.4977 -0.1744  0.0770
12814PW      WP43377  12.024   0.291  12.037  0.2324 -0.1474 -0.0567
12814PW      WM43378  12.062   0.506  12.004 -0.3761 -0.1124 -0.1653
12815PW       W43379  10.693   8.353   2.145 -0.2445  0.3315  0.3173
12815PW      WP43380  10.574   8.366   2.218 -0.0565  0.2273  0.6527
12815PW      WM43381  10.643   8.464   2.214  0.3107  0.3464  0.7339
12816PW       W43382   4.493   1.656   3.411  0.3863  0.4586  0.2939
12816PW      WP43383   4.496   1.733   3.295  0.0718 -0.3265 -0.2779
12816PW      WM43384   4.381   1.628   3.491  0.1774 -0.1963 -0.1882
12817PW       W43385   0.963   7.903  11.017  0.7110 -0.0214  0.3538
12817PW      WP43386   0.966   7.923  11.156  0.0245 -0.8718  0.5368
12817PW      WM43387   1.016   7.840  10.904  0.1471 -0.1675  0.1554
12818PW       W43388   7.656   0.951  11.820 -0.4415  0.0223  0.0998
12818PW      WP43389   7.724   0.832  11.790  0.1735  0.3734  0.0350
12818PW      WM43390   7.585   0.936  11.701  0.4524 -0.1737 -0.4549
12819PW       W43391   9.020   9.028   9.603  0.0931  0.2479  0.0406
12819PW      WP43392   8.952   9.104   9.699  0.2246 -0.0779  0.4083
12819PW      WM43393   9.136   8.954   9.631 -0.1423 -0.0602  0.2362
12820PW       W43394   1.245   0.660   0.523  0.0664  0.3502  0.0425
12820PW      WP43395   1.183   0.583   0.623  0.2689  0.0253 -0.0744
12820PW      WM43396   1.353   0.596   0.461 -0.4383 -0.0472 -0.4794
12821PW       W43397   2.548  11.899   9.925  0.4732 -0.1773  0.0523
12821PW      WP43398   2.665  11.967   9.961  0.3997 -0.0478  0.0515
12821PW      WM43399   2.571  11.886   9.787 -0.2255 -0.0039 -0.0981
12822PW       W43400   1.039  10.310   4.136 -0.0990  0.1932  0.1986
12822PW      WP43401   1.075  10.237   4.022 -0.0168  0.3869  0.0990
12822PW      WM43402   1.017  10.446   4.159 -0.1081  0.1853  0.2373
12823PW       W43403   6.202   7.076  11.862  0.1831  0.1599  0.1950
12823PW      WP43404   6.273   7.175  11.793  0.3774  0.2309  0.4882
12823PW      WM43405   6.126   7.108  11.976 -0.5182 -0.3960 -0.0817
12824PW       W43406   1.201  10.130   1.136  0.4302  0.1122  0.2872
12824PW      WP43407   1.240  10.262   1.113 -0.2916  0.2860 -0.0808
12824PW      WM43408   1.062  10.137   1.121  0.3569 -0.4074  0.6068
12825PW       W43409   0.911   3.711   2.612 -0.0203  0.3390  0.3883
12825PW      WP43410   0.857   3.783   2.506  0.2669  0.0024 -0.0049
12825PW      WM43411   0.930   3.572   2.609  0.0116  0.3333 -0.5578
12826PW       W43412   1.759   6.684   9.870  0.0878 -0.0049  0.2640
12826PW      WP43413   1.662   6.583   9.876 -0.0219  0.0794 -0.0329
12826PW      WM43414   1.815   6.654   9.745 -0.1861 -0.5640  0.2586
12827PW       W43415   9.975   3.690  11.036  0.7293 -0.1940  0.0217
12827PW      WP43416   9.955   3.799  11.122 -0.5147 -0.5437  0.2770
12827PW      WM43417  10.019   3.688  10.903  0.1171  0.8544 -0.2564
12828PW       W43418   0.703  10.375  13.089 -0.3329  0.0288  0.1408
12828PW      WP43419   0.736  10.342  12.957  0.5669 -0.0525  0.3554
12828PW      WM43420   0.752  10.291  13.190 -0.3389  0.3109  0.3850
12829PW       W43421   7.808   1.873   5.279  0.1014  0.3820  0.0067
12829PW      WP43422   7.749   1.753   5.237  0.2519  0.2740  0.0975
12829PW      WM43423   7.785   1.900   5.414  0.3825  0.0936  0.1193
12830PW       W43424   9.729   3.854   8.341  0.3146  0.1194 -0.2473
12830PW      WP43425   9.619   3.805   8.412  0.5326 -0.0513 -0.0216
12830PW      WM43426   9.831   3.927   8.403  0.1293  0.1918 -0.0221
12831PW       W43427   4.322   6.839  12.115 -0.1321 -0.0855  0.1681
12831PW      WP43428   4.251   6.960  12.111 -0.2219 -0.1333  0.2774
12831PW      WM43429   4.222   6.769  12.183 -0.1999  0.0309  0.1907
12832PW       W43430  11.010   5.174  12.004  0.1162  0.2065  0.4611
12832PW      WP43431  11.107   5.142  11.908 -0.1689 -0.2757  0.3148
12832PW      WM43432  11.100   5.265  12.061  0.3540  0.4705 -0.2763
12833PW       W43433   7.484   7.838  10.936  0.1623 -0.0071  0.0301
12833PW      WP43434   7.579   7.872  11.034  0.2377 -0.2954  0.0611
12833PW      WM43435   7.552   7.947  10.881  0.0054  0.0300 -0.0923
12834PW       W43436   1.269   6.952   4.500 -0.1096  0.1955 -0.1268
12834PW      WP43437   1.395   6.896   4.524 -0.2999 -0.1280  0.1416
12834PW      WM43438   1.307   6.821   4.532 -0.2590 -0.0177 -0.7558
12835PW       W43439  10.239   8.906  12.558 -0.0536  0.0069 -0.2844
12835PW      WP43440  10.180   8.798  12.491 -0.1963 -0.0301 -0.1032
12835PW      WM43441  10.111   8.942  12.601 -0.1481 -0.2173 -0.3724
12836PW       W43442   2.685   5.329   9.541  0.5156  0.1502  0.1661
12836PW      WP43443   2.674   5.211   9.616  0.2742 -0.0841 -0.2167
12836PW      WM43444   2.728   5.258   9.428  0.2260  0.1167  0.0726
12837PW       W43445  10.266   0.168  10.565  0.2532  0.0125 -0.5655
12837PW      WP43446  10.135   0.164  10.515  0.0226 -0.4779  0.0058
12837PW      WM43447  10.383   0.110  10.514  0.4700 -0.4399  0.3274
12838PW       W43448   2.129   3.507   2.195 -0.0940  0.0360 -0.1363
12838PW      WP43449   2.011   3.431   2.194  0.0607 -0.2104 -0.5186
12838PW      WM43450   2.150   3.562   2.068  0.0207  0.2653 -0.0209
12839PW       W43451   6.404  11.468  10.565  0.1035  0.2319  0.1607
12839PW      WP43452   6.325  11.578  10.603 -0.6191 -0.3363  0.4344
12839PW      WM43453   6.507  11.533  10.634  0.4603  0.0661 -0.1970
12840PW       W43454   1.807  10.614   9.826 -0.3126 -0.0599 -0.4365
12840PW      WP43455   1.720  10.534   9.751 -0.5421  0.0374 -0.2774
12840PW      WM43456   1.737  10.732   9.855  0.0178  0.1137 -0.3182
12841PW       W43457  10.384   6.708  12.621 -0.0154  0.2052 -0.2721
12841PW      WP43458  10.289   6.806  12.654  0.2798  0.3254  0.2810
12841PW      WM43459  10.326   6.744  12.499 -0.1128  0.5465 -0.1333
12842PW       W43460   8.388  10.362   1.310 -0.2543  0.2748 -0.2512
12842PW      WP43461   8.303  10.308   1.213 -0.4688 -0.0860  0.1200
12842PW      WM43462   8.308  10.312   1.413 -0.1161  0.3707 -0.0950
12843PW       W43463   8.130   1.285   4.535 -0.0294 -0.4866  0.1054
12843PW      WP43464   8.187   1.268   4.662  0.2544  0.0264  0.0606
12843PW      WM43465   8.108   1.147   4.536  0.2516 -0.5354  0.1336
12844PW       W43466   1.213   9.059  11.381  0.2101 -0.2503 -0.4822
12844PW      WP43467   1.337   8.998  11.408  0.0012 -0.2840  0.5792
12844PW      WM43468   1.313   9.153  11.355 -0.0042 -0.0588 -0.6262
12845PW       W43469   3.926   2.994   9.090  0.4562  0.2219  0.1182
12845PW      WP43470   4.029   3.014   8.997  0.4007  0.0501  0.0167
12845PW      WM43471   3.906   3.116   9.155  0.2447  0.0625  0.3648
12846PW       W43472   5.854   9.135   4.973  0.0479 -0.2477 -0.6302
12846PW      WP43473   5.736   9.106   5.043  0.1720 -0.0097 -0.3052
12846PW      WM43474   5.917   9.014   5.005 -0.2416 -0.1959  0.2761
12847PW       W43475   4.971   0.960   9.112  0.3177  0.0832 -0.1206
12847PW      WP43476   5.010   0.825   9.116  0.0481  0.0062  0.6323
12847PW      WM43477   4.848   0.966   9.045  0.3546 -0.2835 -0.2366
12848PW       W43478   8.776   5.196   8.842  0.4120  0.0439  0.0258
12848PW      WP43479   8.746   5.115   8.951  0.5831 -0.0495  0.0059
12848PW      WM43480   8.681   5.298   8.831  0.0723 -0.2676 -0.0089
12849PW       W43481   4.297  10.630   9.881  0.2795  0.1514  0.0312
12849PW      WP43482   4.348  10.644  10.010  0.1564  0.1290  0.0826
12849PW      WM43483   4.194  10.580   9.961  0.4364 -0.1267  0.0665
12850PW       W43484   6.061   8.364  12.881 -0.1750  0.2736 -0.0665
12850PW      WP43485   6.012   8.251  12.814  0.2680 -0.2004  0.3644
12850PW      WM43486   6.021   8.465  12.793  0.2491  0.2184 -0.3356
12851PW       W43487   1.717   1.494  11.045  0.0696  0.1939 -0.0355
12851PW      WP43488   1.799   1.590  10.985  0.2319  0.2026  0.1915
12851PW      WM43489   1.656   1.548  10.931  0.1353 -0.2522 -0.2901
12852PW       W43490   9.295   1.320   5.226 -0.2520 -0.1320  0.0070
12852PW      WP43491   9.189   1.252   5.165 -0.2510 -0.2095  0.0903
12852PW      WM43492   9.399   1.227   5.239 -0.0180  0.1382  0.1315
12853PW       W43493  11.657   9.125   3.995 -0.1940  0.1621  0.0287
12853PW      WP43494  11.689   9.195   3.878 -0.1546  0.1472  0.0306
12853PW      WM43495  11.751   9.209   4.056  0.7495 -0.5215 -0.3585
12854PW       W43496  10.422   4.545   3.051 -0.0617 -0.1744  0.2197
12854PW      WP43497  10.411   4.416   2.997  0.0247  0.1685 -0.6931
12854PW      WM43498  10.307   4.623   3.038 -0.1032 -0.3210 -0.4871
12855PW       W43499  10.508   4.887   4.260  0.1499 -0.4440 -0.0650
12855PW      WP43500  10.621   4.922   4.187 -0.0109 -0.3409 -0.2708
12855PW      WM43501  10.404   4.817   4.197 -0.7204  0.5862  0.0795
12856PW       W43502   6.462   9.181   0.819 -0.6796 -0.1923  0.0558
12856PW      WP43503   6.431   9.274   0.719  0.0999  0.4505  0.3591
12856PW      WM43504   6.501   9.047   0.817  0.0784  0.0112 -0.0635
12857PW       W43505   6.083   8.383   0.874  0.2381  0.3688  0.7318
12857PW      WP43506   6.194   8.351   0.795 -0.5434 -0.2032 -0.2606
12857PW      WM43507   5.986   8.418   0.780  0.7761 -0.2360 -0.1226
12858PW       W43508   1.477  11.866  11.059  0.2315 -0.0614  0.0212
12858PW      WP43509   1.366  11.815  10.990  0.1156  0.2421 -0.0213
12858PW      WM43510   1.398  11.915  10.955 -0.1550 -0.1235  0.2763
12859PW       W43511  10.769   8.615   4.013  0.2865 -0.3153  0.3683
12859PW      WP43512  10.742   8.494   3.948 -0.4710 -0.0137  0.0535
12859PW      WM43513  10.889   8.686   4.006 -0.0188  0.1962 -0.4573
12860PW       W43514   7.558   8.913   3.229 -0.2197  0.2240  0.0470
12860PW      WP43515   7.435   8.916   3.162  0.0146 -0.0381 -0.4228
12860PW      WM43516   7.537   8.778   3.197 -0.0925  0.2189 -0.0195
12861PW       W43517  10.659   2.701  10.090  0.5464 -0.1739  0.0072
12861PW      WP43518  10.653   2.794   9.986 -0.1834  0.3362  0.4659
12861PW      WM43519  10.658   2.831  10.141 -0.5483 -0.0873 -0.1333
12862PW       W43520   6.583   9.244   2.625  0.0256  0.4368  0.2005
12862PW      WP43521   6.588   9.347   2.531 -0.0105  0.1146 -0.1650
12862PW      WM43522   6.697   9.163   2.615 -0.2265  0.0901  0.0096
12863PW       W43523   1.062   1.151   9.172  0.3819 -0.1502  0.6348
12863PW      WP43524   0.956   1.240   9.191  0.1216 -0.2122 -0.2747
12863PW      WM43525   1.167   1.155   9.080 -0.1223  0.1335  0.0341
12864PW       W43526   7.820   9.278   3.018  0.2073 -0.2354 -0.1056
12864PW      WP43527   7.718   9.369   3.050 -0.0970 -0.4514 -0.4308
12864PW      WM43528   7.779   9.182   3.111  0.2190 -0.3220 -0.1899
12865PW       W43529   5.104   6.507  12.915 -0.0998  0.0369  0.0046
12865PW      WP43530   5.105   6.582  13.033  0.0755 -0.3404  0.2546
12865PW      WM43531   5.162   6.390  12.864 -0.2791 -0.1014  0.1116
12866PW       W43532   9.953   8.255   1.603  0.1396  0.1467  0.1505
12866PW      WP43533   9.975   8.193   1.727 -0.0498 -0.0997  0.0659
12866PW      WM43534   9.939   8.135   1.534  0.4090  0.1836  0.0250
12867PW       W43535  12.144  12.133  10.096  0.0806 -0.0580  0.2513
12867PW      WP43536  12.231  12.122  10.205  0.0157  0.7713  0.4208
12867PW      WM43537  12.037  12.043  10.103 -0.0820  0.0856 -0.2030
12868PW       W43538   9.130   3.344   9.295  0.3784  0.0225 -0.3142
12868PW      WP43539   9.088   3.397   9.172 -0.4357 -0.0742 -0.1073
12868PW      WM43540   9.255   3.286   9.319  0.0932 -0.3646  0.3601
12869PW       W43541   1.752   4.183   8.485  0.0509 -0.0188 -0.1520
12869PW      WP43542   1.818   4.298   8.440 -0.3390  0.1578 -0.2950
12869PW      WM43543   1.614   4.167   8.497 -0.0363  0.1318 -0.7987
12870PW       W43544   5.173   4.767   8.570 -0.2686  0.2181  0.2597
12870PW      WP43545   5.196   4.768   8.432 -0.2132 -0.0739  0.2623
12870PW      WM43546   5.123   4.720   8.692 -0.2465  0.0850  0.2187
12871PW       W43547   4.009   5.807  11.468 -0.0372 -0.0501 -0.2593
12871PW      WP43548   3.908   5.904  11.475 -0.1461 -0.1453 -0.4607
12871PW      WM43549   3.960   5.937  11.450  0.1079  0.0742  0.1829
12872PW       W43550  10.467  12.053   5.605 -0.3816  0.0272 -0.1418
12872PW      WP43551  10.586  12.073   5.534 -0.2102  0.0189  0.1371
12872PW      WM43552  10.432  12.063   5.469 -0.0167 -0.1558 -0.2561
12873PW       W43553   9.873   4.390   4.593 -0.3560  0.1521 -0.0943
12873PW      WP43554   9.892   4.422   4.458 -0.1116  0.6687  0.0517
12873PW      WM43555   9.751   4.433   4.648 -0.2198  0.4893 -0.0472
12874PW       W43556   5.907   8.940  11.238 -0.1898  0.1066 -0.4636
12874PW      WP43557   5.793   8.985  11.170 -0.2351  0.5261 -0.1311
12874PW      WM43558   5.863   8.807  11.247  0.4282 -0.0849  0.4844
12875PW       W43559   7.272  11.939  10.927 -0.2757 -0.1387 -0.0527
12875PW      WP43560   7.259  12.042  11.021  0.5614 -0.1794  0.1494
12875PW      WM43561   7.256  11.819  10.997  0.3468 -0.1077  0.1770
12876PW       W43562   9.764   0.700   8.772 -0.1565 -0.1371  0.4092
12876PW      WP43563   9.745   0.562   8.755 -0.0322 -0.0700 -0.4850
12876PW      WM43564   9.876   0.781   8.748 -0.5576  0.2386 -0.3742
12877PW       W43565   5.657   0.389  11.074  0.0862 -0.4557 -0.4605
12877PW      WP43566   5.755   0.456  11.147 -0.4355  0.3930 -0.4716
12877PW      WM43567   5.667   0.283  11.165 -0.4169 -0.3554 -0.2729
12878PW       W43568   5.784  12.096   2.890  0.6096  0.1901  0.0500
12878PW      WP43569   5.799  12.201   2.981  0.4350  0.2792 -0.0229
12878PW      WM43570   5.734  12.131   2.764  0.1970 -0.4311  0.0172
12879PW       W43571   1.149   0.417   4.816 -0.2942 -0.5993  0.2520
12879PW      WP43572   1.095   0.544   4.793  0.4417 -0.2122  0.4955
12879PW      WM43573   1.202   0.291   4.787  0.1884 -0.3547  0.0019
12880PW       W43574   3.932   3.099  12.928  0.1985  0.4625  0.3007
12880PW      WP43575   4.045   3.059  12.855 -0.1347 -0.1337  0.0744
12880PW      WM43576   4.015   3.006  12.990  0.2649  0.3287  0.0221
12881PW       W43577   8.887   4.209   5.382  0.0891  0.0357 -0.4376
12881PW      WP43578   9.023   4.179   5.366  0.0545 -0.2284 -0.2667
12881PW      WM43579   8.848   4.256   5.256 -0.4449  0.9659  0.0231
12882PW       W43580   5.028   6.687   4.030 -0.2759  0.1208  0.1922
12882PW      WP43581   4.891   6.683   4.004 -0.3287  0.0986  0.4631
12882PW      WM43582   5.072   6.589   3.940 -0.1240  0.2045  0.1725
12883PW       W43583  11.478  10.763  13.052  0.2708  0.1423 -0.0573
12883PW      WP43584  11.548  10.858  13.128 -0.1030  0.4386 -0.0704
12883PW      WM43585  11.471  10.623  13.053 -0.0978  0.1540 -0.2407
12884PW       W43586   6.598   4.662   8.433 -0.2721  0.5309  0.1572
12884PW      WP43587   6.500   4.626   8.527 -0.6595  0.2961 -0.3123
12884PW      WM43588   6.709   4.734   8.478 -0.2178  0.4823  0.1010
12885PW       W43589   0.752   2.675  12.600 -0.0115  0.1569 -0.0158
12885PW      WP43590   0.805   2.774  12.684  0.0476 -0.0198  0.1589
12885PW      WM43591   0.672   2.718  12.494 -0.2077 -0.0661  0.0379
12886PW       W43592   3.831   2.435   4.242  0.1663  0.2559  0.0374
12886PW      WP43593   3.809   2.465   4.377  0.1434  0.3561  0.0120
12886PW      WM43594   3.939   2.412   4.156 -0.3588 -0.0427 -0.5932
12887PW       W43595   0.203   6.288   0.684  0.1543 -0.1993  0.0212
12887PW      WP43596   0.087   6.355   0.643  0.2414  0.0796  0.2178
12887PW      WM43597   0.249   6.400   0.754 -0.3523  0.0825 -0.0693
12888PW       W43598  10.546  10.429   1.041  0.3197 -0.1183  0.0362
12888PW      WP43599  10.458  10.495   1.128  0.1825 -0.3189  0.0505
12888PW      WM43600  10.614  10.492   1.147 -0.0414  0.0413  0.1826
12889PW       W43601   2.459   6.946  11.419 -0.1269  0.6319  0.4133
12889PW      WP43602   2.527   7.069  11.416  0.3930  0.3790 -0.5417
12889PW      WM43603   2.323   6.918  11.428 -0.1218  0.2167 -0.3510
12890PW       W43604   7.785  11.398  11.226  0.4085  0.0239  0.2493
12890PW      WP43605   7.712  11.301  11.156  0.3591  0.4164 -0.2695
12890PW      WM43606   7.913  11.340  11.215  0.4337  0.0399  0.4314
12891PW       W43607  11.929   4.646  13.191  0.2305 -0.1323 -0.0688
12891PW      WP43608  11.996   4.731  13.280  0.2821 -0.6073  0.3722
12891PW      WM43609  11.841   4.716  13.107  0.1654  0.0751  0.1649
12892PW       W43610   3.718   1.581  12.683  0.0395  0.5866 -0.2215
12892PW      WP43611   3.581   1.588  12.655  0.0153 -0.0902 -0.3493
12892PW      WM43612   3.853   1.565  12.718 -0.0469  0.0872 -0.0771
12893PW       W43613   1.072   1.745   9.003  0.0846  0.1495  0.1870
12893PW      WP43614   1.136   1.729   9.127 -0.1469  0.2749  0.3267
12893PW      WM43615   1.087   1.716   8.867  0.7703 -0.2112  0.3161
12894PW       W43616   4.291   3.535   9.888  0.1498 -0.1033  0.1737
12894PW      WP43617   4.330   3.439   9.982 -0.2144  0.1189  0.5723
12894PW      WM43618   4.239   3.661   9.920 -0.1541 -0.0869 -0.3206
12895PW       W43619   4.387   9.688   3.186  0.1799 -0.2625  0.1974
12895PW      WP43620   4.327   9.585   3.260 -0.4626 -0.2324 -0.2455
12895PW      WM43621   4.510   9.688   3.120  0.0025  0.1111 -0.1541
12896PW       W43622   4.314  11.102   4.637 -0.1606  0.1287 -0.3130
12896PW      WP43623   4.200  11.130   4.713  0.3447  0.2827  0.4466
12896PW      WM43624   4.390  11.206   4.582 -0.5177  0.5764 -0.0005
12897PW       W43625   0.757  10.771  12.801 -0.2089  0.0058 -0.0033
12897PW      WP43626   0.736  10.904  12.765  0.2704  0.0156 -0.2925
12897PW      WM43627   0.849  10.695  12.729 -0.2363  0.2612 -0.3150
12898PW       W43628   5.468   8.903  12.735 -0.1298 -0.0529 -0.1923
12898PW      WP43629   5.405   8.790  12.788 -0.0577  0.1797  0.4232
12898PW      WM43630   5.543   8.975  12.828  0.1490 -0.2860 -0.2294
12899PW       W43631   4.056   7.393   0.948 -0.3010  0.2623  0.3609
12899PW      WP43632   4.070   7.285   1.036 -0.0476  0.2242  0.2777
12899PW      WM43633   4.163   7.469   0.995  0.2670 -0.2134 -0.0921
12900PW       W43634   2.710   7.855  12.206  0.1796  0.0932  0.2503
12900PW      WP43635   2.785   7.963  12.160 -0.4285  0.5159  0.1896
12900PW      WM43636   2.785   7.741  12.238  0.2209  0.0716  0.0798
12901PW       W43637  10.519  10.125   3.955 -0.3478  0.0743  0.3491
12901PW      WP43638  10.551   9.998   3.906 -0.4173  0.0180  0.4481
12901PW      WM43639  10.633  10.206   3.965 -0.1942 -0.0538 -0.2042
12902PW       W43640  10.881   9.981   2.942  0.4171 -0.1526 -0.3020
12902PW      WP43641  10.903  10.090   2.856  0.0284 -0.0506 -0.2794
12902PW      WM43642  10.858   9.844   2.933 -0.2113 -0.0724 -0.1347
12903PW       W43643   2.122   8.552   0.683  0.0729  0.1782  0.0290
12903PW      WP43644   2.060   8.666   0.735  0.4287  0.2614  0.2885
12903PW      WM43645   2.147   8.491   0.806 -0.5623  0.0867  0.1322
12904PW       W43646   3.805  12.004  10.885 -0.1407  0.3032 -0.0163
12904PW      WP43647   3.724  12.105  10.833  0.3057  0.4199 -0.5361
12904PW      WM43648   3.942  12.004  10.916 -0.1763 -0.5922  0.2871
12905PW       W43649   0.561   3.311  11.164  0.2984  0.3905  0.1215
12905PW      WP43650   0.558   3.402  11.057 -0.1074 -0.2819 -0.4811
12905PW      WM43651   0.601   3.232  11.272  0.1287 -0.1197 -0.1725
12906PW       W43652   6.089   0.167   5.396 -0.1226  0.2836  0.2426
12906PW      WP43653   5.974   0.104   5.347  0.0908  0.0694  0.0064
12906PW      WM43654   6.191   0.254   5.356 -0.2449 -0.0720 -1.0428
12907PW       W43655   0.703   0.308   3.795 -0.1304  0.2413  0.0447
12907PW      WP43656   0.797   0.268   3.699  0.1434 -0.3828  0.5324
12907PW      WM43657   0.592   0.300   3.880 -0.2321 -0.0027 -0.1061
12908PW       W43658  10.943   3.743  11.523 -0.0782 -0.3565  0.5467
12908PW      WP43659  10.930   3.804  11.398 -0.0646 -0.1503  0.6433
12908PW      WM43660  10.819   3.751  11.459  0.1889  0.1914  0.0502
12909PW       W43661   9.192  10.824  13.079  0.0829  0.2377  0.0719
12909PW      WP43662   9.081  10.830  13.165  0.2273 -0.0158  0.2835
12909PW      WM43663   9.206  10.760  12.955  0.4140  0.0825  0.1855
12910PW       W43664   8.549   8.534  12.939 -0.0990  0.0321  0.0095
12910PW      WP43665   8.516   8.613  13.050  0.3539  0.0846  0.1170
12910PW      WM43666   8.416   8.493  12.956  0.0357 -0.2735  0.4178
12911PW       W43667   1.795   2.361   0.117 -0.1966  0.2660 -0.4051
12911PW      WP43668   1.768   2.224   0.120  0.1370  0.1937  0.2090
12911PW      WM43669   1.896   2.414   0.036  0.6567  0.4094  0.6410
12912PW       W43670   4.661  10.125  10.812  0.2022  0.0410  0.1010
12912PW      WP43671   4.541  10.186  10.773  0.0883 -0.1237  0.1856
12912PW      WM43672   4.638  10.060  10.934  0.3530 -0.4320 -0.1131
12913PW       W43673   2.045   6.772   8.354  0.1320 -0.1897 -0.1181
12913PW      WP43674   1.990   6.643   8.357  0.3309 -0.2795 -0.2190
12913PW      WM43675   2.044   6.759   8.214  0.1607 -0.1032 -0.1260
12914PW       W43676   5.158   8.809  10.987  0.4610 -0.4103  0.5750
12914PW      WP43677   5.078   8.781  10.875  0.5020 -0.0442  0.4472
12914PW      WM43678   5.267   8.777  10.904  0.3043  0.1002  0.1456
12915PW       W43679  10.242   2.576   0.931 -0.0739  0.2448 -0.0135
12915PW      WP43680  10.289   2.557   1.061 -0.0300 -0.4017 -0.1098
12915PW      WM43681  10.133   2.501   0.885 -0.0317  0.1549  0.0332
12916PW       W43682  11.903   0.385   0.339 -0.0624 -0.3188  0.0936
12916PW      WP43683  11.807   0.327   0.255 -0.3444 -0.2765  0.3752
12916PW      WM43684  11.839   0.436   0.453  0.2602  0.2652  0.0349
12917PW       W43685   5.361  11.900   4.856 -0.1553 -0.0159 -0.1146
12917PW      WP43686   5.423  12.005   4.788 -0.3117  0.0639 -0.1372
12917PW      WM43687   5.481  11.828   4.843 -0.1655 -0.1879  0.5689
12918PW       W43688   4.151  10.659   1.602  0.4113  0.0501  0.1464
12918PW      WP43689   4.147  10.771   1.687 -0.0663 -0.1231  0.3668
12918PW      WM43690   4.106  10.632   1.473  0.0230  0.0092  0.2857
12919PW       W43691  10.707   5.561  12.187  0.1153  0.4317  0.0088
12919PW      WP43692  10.598   5.559  12.274 -0.1465  0.5059 -0.3040
12919PW      WM43693  10.707   5.525  12.051  0.0635 -0.0285  0.1243
12920PW       W43694  11.344   0.371  11.522  0.2131 -0.2338 -0.1839
12920PW      WP43695  11.205   0.354  11.528  0.2305 -0.3521 -0.0835
12920PW      WM43696  11.444   0.329  11.611  0.5012  0.1574 -0.3094
12921PW       W43697   0.965  11.703  12.906  0.1157 -0.1829 -0.0633
12921PW      WP43698   0.956  11.567  12.933  0.4522 -0.1309  0.3664
12921PW      WM43699   0.984  11.834  12.859 -0.1156 -0.1958 -0.1982
12922PW       W43700   5.485   2.427   4.475 -0.1096  0.2669 -0.1065
12922PW      WP43701   5.478   2.339   4.366  0.1694  0.0815  0.0184
12922PW      WM43702   5.578   2.505   4.545  0.0358  0.0053 -0.0026
12923PW       W43703   4.376   4.149  12.790 -0.1377 -0.7424 -0.1333
12923PW      WP43704   4.299   4.209  12.690  0.5101  0.3172 -0.0732
12923PW      WM43705   4.307   4.178  12.908  0.0324 -0.2641 -0.1375
12924PW       W43706   9.667   1.294   9.452  0.2437  0.0257  0.0130
12924PW      WP43707   9.574   1.359   9.535  0.1098  0.1630 -0.2382
12924PW      WM43708   9.640   1.160   9.483 -0.3446  0.0704 -0.2477
12925PW       W43709   3.319   1.896   1.851 -0.1858  0.1691  0.0592
12925PW      WP43710   3.181   1.919   1.843 -0.3052 -0.4533  0.0942
12925PW      WM43711   3.252   2.018   1.863  0.2126  0.3526  0.7002
12926PW       W43712   2.301   3.462   0.892  0.2056 -0.2566  0.3834
12926PW      WP43713   2.175   3.520   0.914  0.1999 -0.0792 -0.0653
12926PW      WM43714   2.295   3.357   0.984  0.4743 -0.2655  0.3937
12927PW       W43715   6.858  12.073   0.420  0.3711 -0.1980 -0.0175
12927PW      WP43716   6.835  12.149   0.536  0.1343 -0.0788 -0.1386
12927PW      WM43717   6.926  12.152   0.328  0.4500 -0.0488  0.1662
12928PW       W43718  12.139   1.270  10.980  0.6368  0.0429  0.3365
12928PW      WP43719  12.041   1.196  11.048  0.0241 -0.0269 -0.5343
12928PW      WM43720  12.161   1.366  11.079  0.1986  0.6697 -0.1370
12929PW       W43721   9.380   8.982   9.266 -0.3913 -0.1458  0.4322
12929PW      WP43722   9.327   9.101   9.215  0.0117 -0.0036  0.3260
12929PW      WM43723   9.394   8.848   9.226  0.0673  0.0092  0.0167
12930PW       W43724  10.104  10.753   4.234  0.2119 -0.1766 -0.2663
12930PW      WP43725  10.032  10.812   4.339  0.1481 -0.2833 -0.2488
12930PW      WM43726  10.180  10.849   4.168  0.1095  0.4146  0.4084
12931PW       W43727   9.975  11.991  10.320  0.0352  0.0719  0.0504
12931PW      WP43728  10.001  11.901  10.215  0.4255 -0.1550  0.3300
12931PW      WM43729   9.929  11.950  10.445  0.3733  0.5854  0.3614
12932PW       W43730   3.694   3.330   4.160  0.0458  0.0501 -0.0515
12932PW      WP43731   3.624   3.361   4.043 -0.4769  0.0298  0.2419
12932PW      WM43732   3.785   3.434   4.186 -0.0358  0.0920  0.0719
12933PW       W43733   0.826  10.685  11.137 -0.0617 -0.2910  0.0412
12933PW      WP43734   0.946  10.655  11.201 -0.1400  0.0776  0.3820
12933PW      WM43735   0.838  10.787  11.041 -0.2722 -0.3136 -0.0113
12934PW       W43736   0.422   1.073   2.809  0.0022  0.1639  0.0470
12934PW      WP43737   0.450   1.208   2.783  0.1928  0.0299 -0.5014
12934PW      WM43738   0.538   1.032   2.877  0.0262 -0.0638 -0.1249
12935PW       W43739   5.031   4.444   9.649 -0.2633 -0.2294 -0.1013
12935PW      WP43740   5.050   4.576   9.694 -0.0662 -0.3915  0.3178
12935PW      WM43741   5.118   4.420   9.756 -0.0254  0.2966 -0.1562
12936PW       W43742   5.976   7.474   2.047  0.0487 -0.2183 -0.0147
12936PW      WP43743   5.852   7.477   2.111 -0.2114 -0.3399 -0.4825
12936PW      WM43744   5.960   7.376   1.948  0.0826  0.1234 -0.3707
12937PW       W43745   4.461  10.779   0.471  0.0871  0.0314  0.0038
12937PW      WP43746   4.549  10.769   0.580  0.2258  0.6487 -0.0368
12937PW      WM43747   4.433  10.642   0.480 -0.2239  0.0523 -0.4424
12938PW       W43748   2.959  10.729   3.601 -0.2627 -0.1622 -0.1661
12938PW      WP43749   2.880  10.699   3.712  0.0877 -0.5657 -0.0086
12938PW      WM43750   2.967  10.718   3.462  0.0824 -0.0149 -0.1631
12939PW       W43751   2.478   5.535   3.023  0.5551  0.0016 -0.2127
12939PW      WP43752   2.436   5.468   2.907 -0.4851  0.1072  0.0498
12939PW      WM43753   2.458   5.670   2.991 -0.2909 -0.1931 -0.6815
12940PW       W43754  10.428   5.630   9.220 -0.4908  0.1573  0.2932
12940PW      WP43755  10.506   5.698   9.314 -0.2257 -0.0659  0.2428
12940PW      WM43756  10.340   5.538   9.278 -0.1861  0.0875  0.6653
12941PW       W43757   3.139   0.198   4.187  0.2015 -0.3333 -0.1625
12941PW      WP43758   3.219   0.144   4.288  0.4431  0.3079  0.0130
12941PW      WM43759   3.206   0.293   4.108  0.0182 -0.1640 -0.1188
12942PW       W43760   6.566  11.683  11.599  0.1617  0.4763 -0.2727
12942PW      WP43761   6.453  11.739  11.661  0.3133  0.0479  0.4520
12942PW      WM43762   6.664  11.662  11.696 -0.1981 -0.3020 -0.0386
12943PW       W43763   1.725   2.951   2.601 -0.0521  0.1112  0.7303
12943PW      WP43764   1.862   2.920   2.608 -0.0094  0.3015  0.7460
12943PW      WM43765   1.708   3.089   2.608 -0.2769  0.1113  0.3128
12944PW       W43766  10.671   8.215  11.955 -0.0703 -0.1396 -0.0945
12944PW      WP43767  10.676   8.133  12.069 -0.3965 -0.1292 -0.0699
12944PW      WM43768  10.790   8.288  11.941 -0.1255  0.0159  0.2094
12945PW       W43769   2.856   6.811  13.078 -0.0535  0.1434  0.2110
12945PW      WP43770   2.844   6.910  12.980 -0.0581 -0.1344 -0.0763
12945PW      WM43771   2.759   6.797  13.178 -0.0802  0.0844  0.1773
12946PW       W43772   2.351   3.508  11.965 -0.0529  0.0312 -0.1880
12946PW      WP43773   2.433   3.469  11.858  0.0420 -0.0512 -0.0858
12946PW      WM43774   2.214   3.504  11.936 -0.0497  0.2849 -0.2490
12947PW       W43775   0.469   7.473   4.744  0.1895 -0.2287 -0.3626
12947PW      WP43776   0.581   7.517   4.672  0.1577  0.2229 -0.1533
12947PW      WM43777   0.451   7.365   4.831 -0.1266 -0.0765 -0.2338
12948PW       W43778   0.721   8.676   8.931 -0.0053  0.0072  0.0064
12948PW      WP43779   0.687   8.778   9.021 -0.1490 -0.0986  0.0730
12948PW      WM43780   0.749   8.810   8.899  0.3239 -0.1939 -0.6367
12949PW       W43781   6.081   2.740   8.888  0.0043  0.0802 -0.1928
12949PW      WP43782   6.197   2.790   8.950  0.0792 -0.5171  0.1834
12949PW      WM43783   6.018   2.657   8.794  0.2031 -0.0380 -0.2247
12950PW       W43784  10.821   8.771   1.636 -0.2230  0.0318 -0.0593
12950PW      WP43785  10.700   8.774   1.705 -0.1746 -0.1806  0.0375
12950PW      WM43786  10.898   8.888   1.626 -0.6475  0.3565  0.2780
12951PW       W43787   9.294   2.051   4.292 -0.3873 -0.0648 -0.1484
12951PW      WP43788   9.338   2.055   4.159  0.6673 -0.3132  0.1425
12951PW      WM43789   9.178   1.985   4.250 -0.2693 -0.0563 -0.5056
12952PW       W43790   2.510   1.378   0.327 -0.2006 -0.4157  0.7221
12952PW      WP43791   2.592   1.265   0.343  0.3863 -0.1285  0.0276
12952PW      WM43792   2.396   1.449   0.289  0.4075  0.2234 -0.0875
12953PW       W43793   8.727  11.538   3.325  0.2063 -0.2786  0.1418
12953PW      WP43794   8.683  11.494   3.451  0.1698 -0.0754  0.2012
12953PW      WM43795   8.660  11.655   3.364  0.1706 -0.4757  0.7224
12954PW       W43796   6.374   2.199  11.315 -0.0432  0.0608 -0.4093
12954PW      WP43797   6.385   2.150  11.446 -0.0104  0.4936 -0.2414
12954PW      WM43798   6.492   2.252  11.262 -0.2451  0.7100 -0.2581
12955PW       W43799   1.280   9.060   4.545  0.0781  0.4598  0.3160
12955PW      WP43800   1.144   9.081   4.521  0.0661 -0.0242 -0.1225
12955PW      WM43801   1.415   9.096   4.552  0.4470 -0.6207 -0.1167
12956PW       W43802   2.264  10.280  10.393 -0.0443 -0.1576  0.1569
12956PW      WP43803   2.375  10.358  10.360 -0.1628 -0.0958 -0.1083
12956PW      WM43804   2.274  10.198  10.506 -0.1284 -0.2994  0.0629
12957PW       W43805   7.811   0.826   4.516 -0.4851  0.3090 -0.1023
12957PW      WP43806   7.888   0.870   4.407  0.0229  0.4539  0.2964
12957PW      WM43807   7.776   0.861   4.646  0.4847  0.3502  0.1904
12958PW       W43808   5.419   8.362   9.054 -0.1182  0.0173 -0.1365
12958PW      WP43809   5.514   8.448   9.111 -0.0593  0.1733 -0.4595
12958PW      WM43810   5.371   8.438   8.947 -0.1188 -0.1921 -0.2882
12959PW       W43811   7.018   6.278  13.095 -0.2154  0.1509  0.0921
12959PW      WP43812   7.135   6.285  13.018 -0.2117  0.1400  0.0965
12959PW      WM43813   7.043   6.396  13.165  1.0147 -0.0354  0.0810
12960PW       W43814   6.831   8.085   3.746  0.0934 -0.2683  0.3014
12960PW      WP43815   6.750   7.990   3.811  0.6873 -0.5899  0.6161
12960PW      WM43816   6.764   8.053   3.628 -0.0176 -0.0210  0.2959
12961PW       W43817   2.241   0.229   3.149  0.3316 -0.1672 -0.0932
12961PW      WP43818   2.151   0.259   3.253 -0.2545 -0.3854 -0.5073
12961PW      WM43819   2.267   0.110   3.218 -0.1006 -0.1784  0.0686
12962PW       W43820   8.462   4.295  12.017  0.2228 -0.0643 -0.0633
12962PW      WP43821   8.553   4.257  12.116  0.2135 -0.0860 -0.0631
12962PW      WM43822   8.410   4.229  11.905 -0.5397  0.5861 -0.1453
12963PW       W43823   4.812   8.806  10.361 -0.2817 -0.0838 -0.0512
12963PW      WP43824   4.726   8.722  10.288 -0.0719 -0.3759  0.0298
12963PW      WM43825   4.776   8.856  10.235 -0.1302 -0.0311 -0.0733
12964PW       W43826   3.778   5.904  11.990  0.0172 -0.5856  0.2802
12964PW      WP43827   3.743   5.947  12.118  0.1872 -0.0412  0.1555
12964PW      WM43828   3.693   6.014  12.007  0.8433  0.2857 -0.6185
12965PW       W43829   2.473   9.949   4.347 -0.2497 -0.2591 -0.0155
12965PW      WP43830   2.362   9.921   4.267 -0.1514  0.0332 -0.2654
12965PW      WM43831   2.530   9.822   4.365 -0.0981 -0.1715  0.1425
12966PW       W43832  10.979   0.904  12.136 -0.2352 -0.2526  0.0038
12966PW      WP43833  10.973   0.769  12.098 -0.1728 -0.3063  0.1777
12966PW      WM43834  10.853   0.952  12.173  0.0276  0.2366  0.3184
12967PW       W43835   1.500   1.243   2.259  0.1129 -0.2895 -0.3721
12967PW      WP43836   1.566   1.359   2.301 -0.0993 -0.1590 -0.3908
12967PW      WM43837   1.421   1.337   2.192  0.1009  0.5159  0.6318
12968PW       W43838   8.068   2.234  12.482  0.0702 -0.1569 -0.0348
12968PW      WP43839   7.960   2.152  12.520 -0.1602  0.0531 -0.2147
12968PW      WM43840   8.136   2.115  12.456 -0.2608 -0.3060 -0.2517
12969PW       W43841  11.496   7.726  12.885 -0.2737 -0.3243 -0.0087
12969PW      WP43842  11.571   7.839  12.853 -0.8191  0.1964  0.4402
12969PW      WM43843  11.382   7.692  12.958 -0.0688  0.0256  0.5055
12970PW       W43844   1.183   6.848  12.880  0.5154 -0.2538  0.1786
12970PW      WP43845   1.319   6.879  12.875  0.4318  0.0936 -0.2636
12970PW      WM43846   1.152   6.735  12.805  0.2929 -0.1588  0.1234
12971PW       W43847  10.952   7.728  12.868  0.4395 -0.1659 -0.1660
12971PW      WP43848  10.906   7.597  12.862 -0.1179 -0.0396  0.6183
12971PW      WM43849  10.940   7.747  13.006  0.1947 -0.2858 -0.1693
12972PW       W43850   3.348   7.996   4.313  0.3776  0.1769 -0.1898
12972PW      WP43851   3.448   7.936   4.235 -0.0110 -0.2453 -0.3904
12972PW      WM43852   3.312   8.020   4.446  0.1933  0.1990 -0.2417
12973PW       W43853   3.224  10.376  13.013  0.1400 -0.3716  0.0208
12973PW      WP43854   3.163  10.442  12.905  0.0327  0.0784  0.3384
12973PW      WM43855   3.351  10.436  13.009 -0.1012  0.1855  0.2545
12974PW       W43856   4.338   6.710  11.578  0.5886 -0.0018  0.2137
12974PW      WP43857   4.326   6.794  11.467  0.0621 -0.2997  0.0249
12974PW      WM43858   4.341   6.583  11.519  0.2433 -0.0282  0.2427
12975PW       W43859   7.663   9.903   1.753 -0.0984 -0.0241 -0.0624
12975PW      WP43860   7.762   9.891   1.852  0.1198  0.0649 -0.2646
12975PW      WM43861   7.563   9.911   1.850 -0.1103  0.0792 -0.0824
12976PW       W43862   6.539   0.806   9.820  0.1804 -0.0954 -0.3811
12976PW      WP43863   6.585   0.929   9.869 -0.1007 -0.0316 -0.2655
12976PW      WM43864   6.401   0.781   9.814  0.1067  0.1339  0.0832
12977PW       W43865  11.856   2.643  11.806 -0.0487  0.4517 -0.4047
12977PW      WP43866  11.803   2.767  11.769 -0.2018  0.3194 -0.6427
12977PW      WM43867  11.937   2.589  11.907 -0.5883 -0.5606 -0.4424
12978PW       W43868   9.664  11.139  12.158 -0.2154  0.0860  0.2726
12978PW      WP43869   9.590  11.181  12.270 -0.3484  0.4169  0.0689
12978PW      WM43870   9.681  11.268  12.104 -0.1034 -0.1469 -0.2808
12979PW       W43871   3.698   0.446  10.239 -0.1011  0.3871 -0.5645
12979PW      WP43872   3.832   0.424  10.204  0.0163  0.2441 -0.0754
12979PW      WM43873   3.603   0.369  10.172  0.2415 -0.2695 -0.3438
12980PW       W43874   4.215  11.190  12.982 -0.2577  0.4199 -0.4596
12980PW      WP43875   4.283  11.299  13.038 -0.0075 -0.2764  0.7963
12980PW      WM43876   4.149  11.201  13.105  0.3116 -0.4334 -0.0290
12981PW       W43877   6.031   1.424   1.555 -0.2355 -0.1934 -0.3097
12981PW      WP43878   6.013   1.395   1.690 -0.0868  0.2213 -0.1913
12981PW      WM43879   6.128   1.464   1.462 -0.1393 -0.1420 -0.1875
12982PW       W43880  11.263   4.393   3.267  0.2498  0.4357  0.4710
12982PW      WP43881  11.361   4.295   3.244 -0.1690  0.0958  0.0128
12982PW      WM43882  11.244   4.410   3.404 -0.3963 -0.2511  0.4955
12983PW       W43883   3.184   5.193   8.512  0.0931 -0.2314  0.0551
12983PW      WP43884   3.179   5.327   8.551  0.1458  0.0343 -0.7547
12983PW      WM43885   3.065   5.194   8.586 -0.2839 -0.1404 -0.5152
12984PW       W43886   3.765   1.538  10.341  0.4438 -0.3332  0.0820
12984PW      WP43887   3.808   1.406  10.321  0.6711 -0.1590 -0.7956
12984PW      WM43888   3.810   1.594  10.221  0.2345  0.2197  0.2446
12985PW       W43889   8.145  10.046   8.509  0.1731  0.2585 -0.4541
12985PW      WP43890   8.147  10.012   8.373  0.1234 -0.4335 -0.2967
12985PW      WM43891   8.279  10.025   8.542 -0.0243 -0.3708  0.0510
12986PW       W43892  10.988   0.362   3.831  0.1519  0.1058 -0.0313
12986PW      WP43893  10.868   0.374   3.758  0.1011 -0.5935 -0.1025
12986PW      WM43894  11.022   0.312   3.704 -0.2215 -0.1460 -0.0436
12987PW       W43895   0.377   9.054   5.116 -0.1771 -0.1404  0.1137
12987PW      WP43896   0.325   9.166   5.049  0.2319  0.0265  0.0582
12987PW      WM43897   0.426   9.184   5.135 -0.1009 -0.1459 -0.0390
12988PW       W43898   4.432   2.968   0.493  0.1629 -0.1728 -0.2837
12988PW      WP43899   4.473   3.016   0.619 -0.3083 -0.0019 -0.1863
12988PW      WM43900   4.565   2.945   0.530  0.0512 -0.5727 -0.1072
12989PW       W43901   4.245   7.347   2.687  0.0036 -0.1027  0.1442
12989PW      WP43902   4.197   7.216   2.703  0.3086 -0.2039  0.2668
12989PW      WM43903   4.191   7.436   2.780 -0.4618 -0.0817 -0.1306
12990PW       W43904  10.742   2.477   9.487 -0.0162 -0.5613  0.2436
12990PW      WP43905  10.855   2.397   9.505  0.1722 -0.2775  0.3486
12990PW      WM43906  10.737   2.527   9.356 -0.1392 -0.1369  0.4018
12991PW       W43907   0.559   9.109   4.233 -0.0138 -0.3713 -0.6311
12991PW      WP43908   0.466   9.208   4.200 -0.4835 -0.3650  0.4679
12991PW      WM43909   0.645   9.010   4.281 -0.0676 -0.4187 -0.6333
12992PW       W43910  11.247   1.915  12.342 -0.0231 -0.3200  0.2051
12992PW      WP43911  11.381   1.943  12.372  0.0457  0.0151 -0.3434
12992PW      WM43912  11.319   1.842  12.247  0.3778  0.0822  0.1822
12993PW       W43913   3.040   1.523   9.784 -0.0966 -0.3740 -0.0977
12993PW      WP43914   2.908   1.521   9.832  0.0112  0.2168  0.2721
12993PW      WM43915   3.027   1.383   9.789  0.2131 -0.3971  0.2129
12994PW       W43916   8.680   6.665   2.004 -0.3313 -0.3620 -0.2456
12994PW      WP43917   8.817   6.640   2.015 -0.3104 -0.1519 -0.0066
12994PW      WM43918   8.543   6.694   2.000 -0.3251 -0.1619  0.4045
12995PW       W43919   7.823   8.343   0.351  0.0613 -0.4824 -0.0040
12995PW      WP43920   7.779   8.241   0.437  0.5303 -0.4391  0.3083
12995PW      WM43921   7.921   8.250   0.389  0.4048  0.0709  0.5814
12996PW       W43922   3.189  10.681  12.559 -0.2609  0.3529  0.3615
12996PW      WP43923   3.053  10.710  12.559 -0.3239  0.1035 -0.0974
12996PW      WM43924   3.151  10.581  12.649  0.2274 -0.1234  0.0717
12997PW       W43925   5.186   1.555  11.423 -0.0821  0.0510  0.0016
12997PW      WP43926   5.066   1.575  11.494  0.2842  0.0925  0.6493
12997PW      WM43927   5.204   1.417  11.438 -0.3873  0.0284  0.2081
12998PW       W43928  10.286   6.827  10.010  0.0648 -0.2689  0.0003
12998PW      WP43929  10.231   6.804  10.137 -0.3408  0.0344 -0.1109
12998PW      WM43930  10.342   6.712  10.067  0.0906 -0.0934  0.3418
12999PW       W43931   7.178   0.517   0.192  0.3858 -0.0911  0.2042
12999PW      WP43932   7.158   0.624   0.280  0.1701  0.0966 -0.0631
12999PW      WM43933   7.175   0.435   0.079 -0.1735  0.0755  0.0794
13000PW       W43934   8.607   3.044  10.738 -0.2131  0.1058  0.2524
13000PW      WP43935   8.686   3.154  10.704 -0.3793  0.2026  0.1693
13000PW      WM43936   8.722   3.106  10.787  0.0813 -0.4596  0.3212
13001PW       W43937  10.574  11.951  10.604 -0.2127  0.0429  0.1953
13001PW      WP43938  10.538  12.055  10.519  0.0974  0.0711  0.0894
13001PW      WM43939  10.460  11.877  10.636 -0.3100  0.0388 -0.1380
13002PW       W43940   8.652   4.721   8.721  0.0830  0.2111  0.0806
13002PW      WP43941   8.745   4.681   8.818  0.2456  0.2496 -0.0589
13002PW      WM43942   8.551   4.789   8.791  0.1331  0.2150  0.1501
13003PW       W43943   2.522   7.044   9.656 -0.3774 -0.2004 -0.1934
13003PW      WP43944   2.636   7.028   9.735 -0.2679 -0.8344 -0.4470
13003PW      WM43945   2.554   6.953   9.758 -0.0790 -0.1692 -0.2559
13004PW       W43946   4.836   7.848   1.048  0.3795  0.2841  0.1396
13004PW      WP43947   4.933   7.762   1.100  0.2639  0.2553  0.3107
13004PW      WM43948   4.740   7.906   1.132  0.2186  0.2027  0.0125
13005PW       W43949   7.805   2.984  11.269 -0.1782  0.0166  0.1781
13005PW      WP43950   7.857   2.922  11.383  0.2335  0.1762  0.0874
13005PW      WM43951   7.679   3.008  11.214 -0.0974 -0.1115 -0.0747
13006PW       W43952  10.867   4.629   8.512 -0.3589  0.5353  0.0651
13006PW      WP43953  10.769   4.577   8.597 -0.3207  0.5388  0.1114
13006PW      WM43954  10.954   4.715   8.443  0.0749  0.1179  0.0607
13007PW       W43955  10.619   0.634  13.334 -0.0337 -0.0952 -0.4899
13007PW      WP43956  10.751   0.678  13.335 -0.0758  0.0501  0.0438
13007PW      WM43957  10.521   0.726  13.295 -0.2709 -0.3010 -0.3946
13008PW       W43958   5.166   8.203  11.097 -0.0222 -0.1390 -0.3175
13008PW      WP43959   5.088   8.243  11.207  0.0092  0.1695 -0.4027
13008PW      WM43960   5.217   8.233  10.970  0.0464  0.1263 -0.2310
13009PW       W43961  11.177   6.821  12.779 -0.1035 -0.1040 -0.0205
13009PW      WP43962  11.103   6.844  12.663 -0.1222  0.1399  0.0374
13009PW      WM43963  11.101   6.713  12.826 -0.0545 -0.0733  0.1318
13010PW       W43964   8.965   1.286   8.847  0.0963 -0.2998  0.0789
13010PW      WP43965   8.913   1.230   8.965  0.3314 -0.6311  0.0322
13010PW      WM43966   8.829   1.300   8.815  0.0721 -0.0976  0.2597
13011PW       W43967   0.893   1.120   0.527  0.1082  0.1677 -0.3417
13011PW      WP43968   0.805   1.227   0.508  0.5408  0.5575 -0.2298
13011PW      WM43969   0.790   1.098   0.434  0.0128 -0.0998 -0.1773
13012PW       W43970  10.065   5.295   9.919 -0.0444 -0.2250 -0.2442
13012PW      WP43971   9.969   5.314  10.020 -0.1873  0.1776 -0.4434
13012PW      WM43972   9.973   5.251   9.823 -0.2523  0.1967 -0.2508
13013PW       W43973   7.899   5.942   0.062 -0.4901 -0.0911  0.0942
13013PW      WP43974   7.774   5.995   0.028 -0.4503 -0.2003 -0.2379
13013PW      WM43975   8.021   5.938   0.132  0.0020  0.0236 -0.6913
13014PW       W43976  10.984   0.865  13.143 -0.0822  0.0292 -0.0219
13014PW      WP43977  10.988   0.944  13.258 -0.2784  0.0204 -0.0067
13014PW      WM43978  10.885   0.773  13.181  0.1646 -0.3157 -0.1892
13015PW       W43979  11.060   2.253   8.864  0.1793  0.3132  0.0346
13015PW      WP43980  11.132   2.173   8.774 -0.2031 -0.2976  0.2406
13015PW      WM43981  10.951   2.298   8.940 -0.0111 -0.0125 -0.0364
13016PW       W43982   9.414   8.188   9.141 -0.2052 -0.1255  0.3057
13016PW      WP43983   9.394   8.299   9.057  0.3749  0.2897  0.6766
13016PW      WM43984   9.536   8.248   9.174  0.1261 -0.3728 -0.3784
13017PW       W43985   9.405   7.586   4.940 -0.2590 -0.5630  0.5259
13017PW      WP43986   9.468   7.625   5.059 -0.4762  0.5844  0.3190
13017PW      WM43987   9.311   7.534   4.851 -0.0246 -0.3064  0.1110
13018PW       W43988   6.331   5.305   9.836  0.2874 -0.1252 -0.1640
13018PW      WP43989   6.319   5.195   9.921  0.2742 -0.1910 -0.2494
13018PW      WM43990   6.191   5.312   9.840  0.3022  0.0784  0.3175
13019PW       W43991   0.432   1.586  10.928  0.1051 -0.3562  0.1723
13019PW      WP43992   0.376   1.522  10.817 -0.6596 -0.1128  0.3865
13019PW      WM43993   0.415   1.644  11.055  0.1760  0.0391  0.0102
13020PW       W43994   0.596  11.076   2.723  0.0197  0.0234 -0.1469
13020PW      WP43995   0.602  11.067   2.583  0.2541 -0.0454 -0.1336
13020PW      WM43996   0.464  11.031   2.737  0.0828 -0.2383 -0.3487
13021PW       W43997   2.901   4.093   4.062  0.2271  0.0797 -0.0507
13021PW      WP43998   3.033   4.115   4.104  0.0662 -0.0215  0.5512
13021PW      WM43999   2.945   3.973   4.004 -0.0650 -0.0904  0.0656
13022PW       W44000   4.898  11.936  12.069 -0.1232 -0.2153 -0.1656
13022PW      WP44001   4.786  11.971  12.146  0.1775  0.0625  0.1648
13022PW      WM44002   4.861  11.811  12.018  0.0863 -0.4314  0.1896
13023PW       W44003   3.661  11.495  12.467 -0.5515  0.1288  0.7174
13023PW      WP44004   3.525  11.471  12.441 -0.3843 -0.1232 -0.0574
13023PW      WM44005   3.671  11.635  12.464  0.2472  0.0942  0.0806
13024PW       W44006   1.532   0.931  10.958  0.0410  0.5849 -0.5269
13024PW      WP44007   1.547   0.830  10.862 -0.2197  0.1860 -0.1675
13024PW      WM44008   1.463   1.021  11.040 -0.0063  0.1502 -0.0588
13025PW       W44009   2.697   8.246  10.613 -0.1845 -0.1718 -0.1162
13025PW      WP44010   2.757   8.171  10.715 -0.5781 -0.3433 -0.0035
13025PW      WM44011   2.602   8.144  10.602 -0.2681 -0.1013 -0.0576
13026PW       W44012   0.813   6.091   0.170 -0.4429  0.4481  0.0314
13026PW      WP44013   0.858   6.224   0.164 -0.4139  0.4434  0.1309
13026PW      WM44014   0.787   6.070   0.033  0.3971  0.1917 -0.1139
13027PW       W44015  11.846   4.178   9.550 -0.3499 -0.2837 -0.5358
13027PW      WP44016  11.984   4.185   9.526 -0.2703  0.2225 -0.0510
13027PW      WM44017  11.731   4.163   9.473 -0.4384  0.1158 -0.4952
13028PW       W44018   0.473   0.836   3.707  0.0549 -0.2808 -0.2735
13028PW      WP44019   0.523   0.905   3.596  0.5605 -0.3157 -0.0801
13028PW      WM44020   0.571   0.908   3.777  0.1776 -0.3413 -0.3809
13029PW       W44021  11.933   5.943   3.059  0.2012  0.1146 -0.2119
13029PW      WP44022  11.895   6.071   3.102 -0.3628 -0.0316 -0.2472
13029PW      WM44023  12.052   5.977   3.125 -0.0022 -0.0102  0.2361
13030PW       W44024   8.236   3.645  13.050 -0.3088  0.3494 -0.0450
13030PW      WP44025   8.253   3.708  12.927 -0.2932  0.0565 -0.1964
13030PW      WM44026   8.171   3.523  13.028  0.2256  0.0216  0.1023
13031PW       W44027   5.494   2.386   3.060 -0.1377 -0.0533  0.0706
13031PW      WP44028   5.592   2.426   3.153  0.4939 -0.1563 -0.5107
13031PW      WM44029   5.445   2.301   3.160  0.3049  0.1359  0.4736
13032PW       W44030   7.358   9.844   4.195 -0.1856  0.0626  0.2471
13032PW      WP44031   7.451   9.930   4.254 -0.3224 -0.0789  0.6872
13032PW      WM44032   7.378   9.792   4.323  0.1204 -0.0693  0.1483
13033PW       W44033   8.665   4.855   2.195 -0.3039 -0.5353  0.2675
13033PW      WP44034   8.672   4.891   2.059 -0.1510  0.0793  0.4223
13033PW      WM44035   8.749   4.845   2.306  0.1718 -0.0424 -0.0257
13034PW       W44036  10.623   3.665   0.567 -0.0992  0.3715  0.0337
13034PW      WP44037  10.724   3.726   0.493  0.1005  0.4886  0.3892
13034PW      WM44038  10.583   3.728   0.686 -0.2214 -0.0703  0.2345
13035PW       W44039   3.299  10.622   1.849  0.3406  0.0803 -0.1663
13035PW      WP44040   3.403  10.709   1.813  0.4858 -0.0853 -0.1548
13035PW      WM44041   3.346  10.518   1.767  0.3879 -0.0547  0.0278
13036PW       W44042   3.797   8.206   9.776  0.1748 -0.0092  0.4552
13036PW      WP44043   3.703   8.183   9.675  0.5464 -0.1722  0.1333
13036PW      WM44044   3.740   8.303   9.859 -0.1399  0.0622  0.1622
13037PW       W44045   7.509   9.341   9.492  0.2765 -0.1377  0.1700
13037PW      WP44046   7.543   9.385   9.363 -0.3313  0.0234  0.0462
13037PW      WM44047   7.497   9.202   9.508 -0.5148 -0.0729  0.3419
13038PW       W44048   8.352   8.631   2.023 -0.5747  0.0723  0.2553
13038PW      WP44049   8.322   8.504   2.072  0.0831 -0.3130 -0.2456
13038PW      WM44050   8.478   8.688   2.046 -0.2267 -0.2858 -0.5449
13039PW       W44051   0.221  11.829  11.426 -0.1072  0.0278 -0.4343
13039PW      WP44052   0.224  11.942  11.343 -0.0243 -0.0463 -0.5336
13039PW      WM44053   0.353  11.788  11.440 -0.3138 -0.6239 -0.2374
13040PW       W44054   2.130  10.834  11.828 -0.3608  0.0033  0.2273
13040PW      WP44055   2.262  10.825  11.780 -0.3732 -0.4837  0.2658
13040PW      WM44056   2.076  10.879  11.707 -0.1372  0.1550  0.1809
13041PW       W44057   4.111   8.527   4.663  0.1118 -0.3683  0.4797
13041PW      WP44058   4.170   8.639   4.604 -0.0396 -0.2881  0.4776
13041PW      WM44059   4.106   8.387   4.653 -0.2210 -0.3534  0.3656
13042PW       W44060  11.947   4.553   9.202  0.1013 -0.4785  0.1105
13042PW      WP44061  11.877   4.674   9.214  0.2841 -0.2994 -0.4820
13042PW      WM44062  11.919   4.531   9.067  0.4140 -0.3377  0.0187
13043PW       W44063  10.234   0.713  10.675 -0.3127  0.3227  0.0490
13043PW      WP44064  10.204   0.693  10.811  0.5865 -0.3289  0.1943
13043PW      WM44065  10.145   0.609  10.705  0.1016 -0.1618 -0.3056
13044PW       W44066  10.747  11.118   5.031  0.0446  0.0679  0.0634
13044PW      WP44067  10.762  11.020   4.932 -0.3921 -0.2101  0.2585
13044PW      WM44068  10.649  11.212   4.997  0.3765  0.3528 -0.1464
13045PW       W44069   1.593   6.886  12.637 -0.0135 -0.1681  0.0327
13045PW      WP44070   1.661   7.009  12.629 -0.0513 -0.1326  0.2256
13045PW      WM44071   1.594   6.901  12.776 -0.2271  0.1364  0.0064
13046PW       W44072   2.886   2.997   2.236 -0.0074  0.0873  0.2982
13046PW      WP44073   2.891   3.116   2.162  0.2752 -0.0864  0.0230
13046PW      WM44074   2.827   2.975   2.361 -0.5350  0.3006  0.0984
13047PW       W44075   3.870   6.088   1.140  0.0844  0.2065  0.2310
13047PW      WP44076   3.773   6.084   1.241 -0.0392  0.3272  0.1184
13047PW      WM44077   3.940   6.004   1.228  0.0526 -0.1027 -0.0311
13048PW       W44078   4.054  11.797   3.637  0.0170 -0.2537 -0.3304
13048PW      WP44079   4.044  11.729   3.759  0.5678 -0.3357 -0.3151
13048PW      WM44080   4.138  11.879   3.714 -0.3107 -0.0156 -0.2139
13049PW       W44081   8.979   6.000   3.978 -0.1967  0.1584 -0.0317
13049PW      WP44082   9.040   5.875   3.960  0.1724  0.3022  0.1785
13049PW      WM44083   8.981   6.015   3.838 -0.5762 -0.4908 -0.1271
13050PW       W44084   3.522   5.013  12.275 -0.3077  0.2673  0.2400
13050PW      WP44085   3.416   5.094  12.234 -0.3129  0.1884  0.0934
13050PW      WM44086   3.608   5.012  12.164 -0.3083  0.2517  0.2398
13051PW       W44087  11.025   0.435  11.855  0.2078  0.1568 -0.2454
13051PW      WP44088  11.007   0.297  11.835 -0.5127  0.1930 -0.0046
13051PW      WM44089  11.074   0.408  11.727  0.0815 -0.1594 -0.2322
13052PW       W44090   1.747  10.165   2.467 -0.0732 -0.1127 -0.1123
13052PW      WP44091   1.692  10.270   2.393  0.1639 -0.1941 -0.4148
13052PW      WM44092   1.763  10.075   2.361  0.0479 -0.1548 -0.0602
13053PW       W44093  10.265   7.892   3.579  0.0141 -0.3206  0.1043
13053PW      WP44094  10.212   7.842   3.459  0.6358  0.6884 -0.6645
13053PW      WM44095  10.143   7.929   3.637 -0.3112 -1.0013 -0.0848
13054PW       W44096   1.645   7.930  12.273  0.3462 -0.1845  0.1928
13054PW      WP44097   1.534   7.849  12.302  0.0986  0.0518 -0.0699
13054PW      WM44098   1.547   7.894  12.180  0.6304 -0.2645 -0.0856
13055PW       W44099   5.329   0.079   4.298 -0.1837 -0.0069  0.2904
13055PW      WP44100   5.216   0.003   4.332  0.0724 -0.2037  0.7415
13055PW      WM44101   5.447   0.115   4.363  0.0376 -0.1660 -0.0056
13056PW       W44102   8.636   7.967   4.790 -0.2081  0.0970  0.0369
13056PW      WP44103   8.512   7.959   4.854 -0.1102 -0.1106  0.2061
13056PW      WM44104   8.709   7.849   4.805  0.0548  0.3159  0.6369
13057PW       W44105   9.285   1.467   9.663  0.1887 -0.0312 -0.1774
13057PW      WP44106   9.255   1.582   9.737 -0.4563 -0.3084  0.0266
13057PW      WM44107   9.348   1.399   9.558 -0.0175 -0.1012 -0.2573
13058PW       W44108   9.058   8.297   2.970  0.2363 -0.1311  0.0940
13058PW      WP44109   9.128   8.298   3.091  0.1239  0.4770  0.1728
13058PW      WM44110   9.092   8.174   2.914  0.9267  0.1986 -0.2689
13059PW       W44111   8.315   8.144   3.267 -0.4188  0.2238  0.1470
13059PW      WP44112   8.226   8.240   3.317 -0.0576  0.8290 -0.2953
13059PW      WM44113   8.295   8.058   3.159  0.6917 -0.0368  0.0855
13060PW       W44114   7.959   1.119   9.939  0.0981 -0.0606  0.2917
13060PW      WP44115   7.942   1.135  10.077 -0.0254 -0.3641  0.3168
13060PW      WM44116   7.876   1.082   9.832  0.2384  0.4012  0.0075
13061PW       W44117  11.481   0.177   4.813 -0.0305  0.0512 -0.1436
13061PW      WP44118  11.346   0.159   4.782  0.0126 -0.3064 -0.1460
13061PW      WM44119  11.607   0.148   4.759 -0.0465 -0.3280  0.0060
13062PW       W44120   7.190   5.037   9.725 -0.1758  0.1620  0.2276
13062PW      WP44121   7.184   5.052   9.586 -0.4502  0.2280  0.2420
13062PW      WM44122   7.054   5.057   9.753 -0.1225  0.2085  0.4652
13063PW       W44123   9.046   5.998  10.800 -0.0892 -0.2682 -0.3531
13063PW      WP44124   9.044   6.021  10.662 -0.5765 -0.2302 -0.3462
13063PW      WM44125   8.980   5.882  10.840  0.0734 -0.3004 -0.1714
13064PW       W44126   0.464   2.389  11.064 -0.3866  0.1349 -0.1085
13064PW      WP44127   0.412   2.514  11.099  0.4651  0.5075 -0.0495
13064PW      WM44128   0.379   2.340  10.964 -0.2099 -0.6723  0.0985
13065PW       W44129   2.360   6.999   0.506 -0.2010 -0.4224  0.0115
13065PW      WP44130   2.307   6.920   0.609 -0.4397  0.1943  0.3854
13065PW      WM44131   2.428   7.120   0.522 -0.3488 -0.3468  0.0793
13066PW       W44132   2.154   7.289  11.497 -0.0857 -0.0906 -0.0112
13066PW      WP44133   2.275   7.321  11.560 -0.2092  0.1334  0.1173
13066PW      WM44134   2.266   7.242  11.429  0.0190  0.0273  0.0775
13067PW       W44135  10.560   5.073   4.776  0.2838  0.0773  0.0563
13067PW      WP44136  10.576   4.986   4.885  0.7186  0.4869  0.3409
13067PW      WM44137  10.641   5.177   4.729  0.4616 -0.0828  0.0024
13068PW       W44138   0.375  11.808  12.222  0.1676 -0.1874 -0.6923
13068PW      WP44139   0.416  11.940  12.205 -0.1693  0.1258  0.4538
13068PW      WM44140   0.473  11.737  12.292 -0.3776 -0.4212 -0.1123
13069PW       W44141   0.798   3.149   2.143 -0.2526 -0.3066 -0.4597
13069PW      WP44142   0.769   3.170   2.008  0.1425  0.9671 -0.4111
13069PW      WM44143   0.825   3.015   2.173 -0.4599 -0.2786 -0.1152
13070PW       W44144   6.942   5.277   1.913 -0.4318  0.1452  0.7276
13070PW      WP44145   6.956   5.150   1.856 -0.1028  0.4345  0.1184
13070PW      WM44146   6.804   5.296   1.927 -0.5200  0.0179  0.1516
13071PW       W44147   3.419  10.696  10.717 -0.0821  0.1045 -0.2626
13071PW      WP44148   3.315  10.620  10.663 -0.5627  0.5008  0.0578
13071PW      WM44149   3.514  10.601  10.755 -0.1478  0.0503 -0.2343
13072PW       W44150   3.869   0.130   1.146 -0.0264  0.7888  0.1662
13072PW      WP44151   3.995   0.109   1.204 -0.0471  0.9012  0.2550
13072PW      WM44152   3.804   0.176   1.031 -0.3128  0.3904  0.1571
13073PW       W44153   6.143  11.754   8.992  0.0816 -0.2284  0.1527
13073PW      WP44154   6.058  11.677   9.072  0.0572 -0.2317  0.1240
13073PW      WM44155   6.130  11.873   8.919  0.2183  0.1001  0.6416
13074PW       W44156  11.762   6.788   3.682 -0.2103 -0.0796  0.1981
13074PW      WP44157  11.707   6.916   3.694  0.1858  0.1575 -0.3209
13074PW      WM44158  11.802   6.655   3.697 -0.2295 -0.1242 -0.1182
13075PW       W44159   3.265   2.829  10.506  0.0081 -0.2407  0.1646
13075PW      WP44160   3.192   2.929  10.440 -0.3390 -0.4325  0.2455
13075PW      WM44161   3.174   2.821  10.612  0.2482 -0.3429  0.3701
13076PW       W44162   8.104   3.946   4.972 -0.1761 -0.1117 -0.2059
13076PW      WP44163   8.128   3.931   5.109 -0.3848  0.4799 -0.0889
13076PW      WM44164   8.176   3.880   4.872 -0.1030  0.0417 -0.2563
13077PW       W44165  11.011   7.232   0.475  0.1832 -0.0666  0.1919
13077PW      WP44166  11.040   7.120   0.397  0.1091  0.3457 -0.4670
13077PW      WM44167  11.029   7.104   0.422 -0.0900  0.1169 -0.3957
13078PW       W44168   9.617   5.218   2.233  0.0240  0.1868 -0.1745
13078PW      WP44169   9.585   5.310   2.132  0.6366  0.6062 -0.0160
13078PW      WM44170   9.565   5.225   2.362  0.2977 -0.0453 -0.0461
13079PW       W44171  12.051   9.427   8.353  0.1440 -0.3569  0.1835
13079PW      WP44172  12.002   9.530   8.271  0.0274 -0.4200  0.1718
13079PW      WM44173  12.162   9.474   8.283 -0.3116  0.0221 -0.3310
13080PW       W44174  11.909   3.299   4.631 -0.2093  0.0190  0.0966
13080PW      WP44175  11.911   3.413   4.712 -0.2473 -0.2342  0.4677
13080PW      WM44176  11.994   3.223   4.712 -0.2823 -0.2678 -0.0868
13081PW       W44177  10.871   7.735  11.850 -0.0289  0.3429 -0.3285
13081PW      WP44178  10.879   7.739  11.711 -0.1644 -0.2044 -0.3640
13081PW      WM44179  10.750   7.805  11.865 -0.1263  0.1258 -0.0240
13082PW       W44180   5.548   1.798  11.168 -0.4891 -0.4344  0.5442
13082PW      WP44181   5.425   1.739  11.135 -0.7574  0.2454  0.2469
13082PW      WM44182   5.639   1.700  11.126  0.0674  0.1515  0.2916
13083PW       W44183  10.096  10.456   1.938  0.0228  0.1369 -0.2131
13083PW      WP44184  10.032  10.371   1.847 -0.1201 -0.0275  0.0366
13083PW      WM44185  10.192  10.456   2.039 -0.3411  0.0886  0.1433
13084PW       W44186   9.447   2.287  11.409  0.0799  0.3369 -0.3107
13084PW      WP44187   9.436   2.353  11.287  0.1059  0.1978 -0.3900
13084PW      WM44188   9.576   2.315  11.361  0.5056 -0.2770  0.3601
13085PW       W44189   0.585   7.877   0.799  0.0389 -0.2824  0.4245
13085PW      WP44190   0.517   7.991   0.753  0.2098 -0.1946  0.3869
13085PW      WM44191   0.593   7.804   0.918 -0.0829 -0.3256  0.4072
13086PW       W44192   4.490   5.038   2.935  0.4083  0.2837  0.6116
13086PW      WP44193   4.505   5.172   2.897 -0.4172  0.1778 -0.3137
13086PW      WM44194   4.355   5.020   2.904  0.4509 -0.1973  0.6731
13087PW       W44195   4.084   1.756   3.113  0.0864  0.2154 -0.2759
13087PW      WP44196   4.054   1.837   3.003  0.5454  0.0098 -0.5696
13087PW      WM44197   4.106   1.814   3.239 -0.3580  0.4844 -0.3120
13088PW       W44198   7.931   4.304  11.029  0.4115 -0.0778  0.2062
13088PW      WP44199   7.930   4.444  11.026 -0.1836 -0.0711 -0.1299
13088PW      WM44200   7.853   4.208  11.094  0.3672  0.0268  0.3088
13089PW       W44201   0.927   4.737   2.880  0.1069 -0.0334  0.2681
13089PW      WP44202   1.058   4.694   2.855  0.1533  0.2737 -0.0682
13089PW      WM44203   0.793   4.726   2.840  0.0799 -0.1356  0.3868
13090PW       W44204   9.168   7.425   1.043  0.2347 -0.6322  0.0262
13090PW      WP44205   9.280   7.474   0.975 -0.4029  0.5627 -0.2850
13090PW      WM44206   9.249   7.461   1.152 -0.4598  0.5311  0.2390
13091PW       W44207   3.717   4.865  10.884  0.2198 -0.0158 -0.1999
13091PW      WP44208   3.739   4.808  10.758 -0.1110  0.1511 -0.3418
13091PW      WM44209   3.583   4.825  10.896  0.2846 -0.2267 -0.1503
13092PW       W44210   2.256   6.354   2.888  0.3436 -0.1331  0.3876
13092PW      WP44211   2.268   6.476   2.956  0.4852  0.1157 -0.0598
13092PW      WM44212   2.172   6.281   2.972  0.0938 -0.5499 -0.1934
13093PW       W44213   9.700   9.352   0.659  0.0651  0.0015 -0.3453
13093PW      WP44214   9.786   9.458   0.691 -0.3960  0.2105  0.2979
13093PW      WM44215   9.741   9.237   0.728 -0.1756  0.1797  0.1103
13094PW       W44216  11.018   3.086   4.603  0.4283  0.1766  0.4841
13094PW      WP44217  10.939   3.194   4.564  0.4476  0.0655  0.1198
13094PW      WM44218  11.147   3.095   4.550  0.1981  0.0743 -0.1290
13095PW       W44219   5.226   8.237   0.368 -0.4807  0.1639 -0.3963
13095PW      WP44220   5.199   8.189   0.497 -0.4292  0.2487 -0.3534
13095PW      WM44221   5.256   8.362   0.314 -0.3437  0.0944 -0.4846
13096PW       W44222   9.363   6.888   1.111 -0.0490 -0.1832 -0.1325
13096PW      WP44223   9.415   6.759   1.126  0.5056  0.0595  0.2031
13096PW      WM44224   9.364   6.942   0.982  0.1146 -0.3904 -0.2203
13097PW       W44225   5.069   2.388   1.936  0.0270  0.2357  0.2358
13097PW      WP44226   4.977   2.439   1.844  0.2434  0.0186 -0.1116
13097PW      WM44227   5.205   2.417   1.922  0.0066  0.3694  0.3042
13098PW       W44228   7.647   1.896   1.086  0.1284  0.4748 -0.1105
13098PW      WP44229   7.537   1.953   1.152  0.3766  0.5555  0.2475
13098PW      WM44230   7.642   1.782   1.168 -0.1608  0.2880 -0.3752
13099PW       W44231   9.837   1.214   4.528  0.1012  0.1313  0.1954
13099PW      WP44232   9.705   1.180   4.561  0.1711 -0.1062  0.2425
13099PW      WM44233   9.814   1.076   4.542  0.1227  0.0932 -0.0998
13100PW       W44234   5.944  11.154  11.121  0.3872 -0.0029  0.5548
13100PW      WP44235   6.044  11.132  11.026 -0.0626 -0.2320  0.1150
13100PW      WM44236   5.950  11.038  11.043 -0.6631  0.2773 -0.0418
13101PW       W44237   6.486   3.943  10.795 -0.4313 -0.0477 -0.3828
13101PW      WP44238   6.522   3.812  10.828  0.0152  0.1434 -0.0600
13101PW      WM44239   6.575   3.973  10.692  0.2131 -0.3858  0.0409
13102PW       W44240   2.299   4.568   0.977 -0.4329  0.1955  0.0994
13102PW      WP44241   2.318   4.430   0.972 -0.0989  0.2245  0.3716
13102PW      WM44242   2.426   4.624   0.991 -0.3723  0.0458  0.1611
13103PW       W44243   2.455   9.291  12.802 -0.3102  0.2033 -0.5187
13103PW      WP44244   2.400   9.407  12.859 -0.5014 -0.0717 -0.1244
13103PW      WM44245   2.436   9.159  12.760  0.3088 -0.2450  0.4222
13104PW       W44246   9.149   5.602   0.159 -0.2586 -0.1199 -0.2708
13104PW      WP44247   9.114   5.738   0.152 -0.2604 -0.1113 -0.1181
13104PW      WM44248   9.054   5.531   0.084 -0.4904  0.0369 -0.1321
13105PW       W44249   0.449   3.647   3.551  0.1164  0.8412 -0.0332
13105PW      WP44250   0.495   3.610   3.424 -0.4332 -0.3774  0.0525
13105PW      WM44251   0.310   3.642   3.571  0.0712  0.2224 -0.3891
13106PW       W44252   1.982   1.624   1.235  0.4972  0.1344  0.2519
13106PW      WP44253   2.098   1.631   1.313  0.1956 -0.0025  0.7348
13106PW      WM44254   1.947   1.759   1.233  0.2859  0.0809 -0.1141
13107PW       W44255  11.741   6.368   0.081 -0.0036 -0.7455 -0.0921
13107PW      WP44256  11.836   6.470   0.086 -0.7426 -0.0180  0.2713
13107PW      WM44257  11.674   6.407  -0.036  0.2234 -0.6119 -0.1804
13108PW       W44258   1.702   7.194  11.355 -0.0791  0.0852 -0.0580
13108PW      WP44259   1.765   7.172  11.231 -0.1776 -0.4999 -0.0203
13108PW      WM44260   1.769   7.197  11.477  0.1931  0.0031 -0.2000
13109PW       W44261   0.510   3.256  11.982 -0.3386  0.1339  0.2970
13109PW      WP44262   0.467   3.355  11.894 -0.2937 -0.1745 -0.0867
13109PW      WM44263   0.647   3.230  11.994 -0.2961  0.2989  0.1860
13110PW       W44264   9.949  10.250   3.891  0.1677 -0.2896  0.3913
13110PW      WP44265   9.998  10.258   3.760 -0.0943 -0.0385  0.3017
13110PW      WM44266   9.847  10.161   3.925 -0.4734  0.0452 -0.4434
13111PW       W44267   9.407   6.932   3.988 -0.0551  0.1432 -0.0059
13111PW      WP44268   9.420   7.005   4.106 -0.4186 -0.2784  0.3152
13111PW      WM44269   9.519   6.850   3.970  0.0621  0.2288  0.3125
13112PW       W44270  11.359  10.284   1.123 -0.1772  0.1446 -0.2110
13112PW      WP44271  11.228  10.289   1.075 -0.3778 -0.4922  0.2143
13112PW      WM44272  11.390  10.405   1.060 -0.2223  0.3376  0.1269
13113PW       W44273  11.692   3.738   3.765  0.0137 -0.0516 -0.4221
13113PW      WP44274  11.650   3.868   3.737 -0.0261  0.1575  0.4547
13113PW      WM44275  11.785   3.800   3.848 -0.0183 -0.0112 -0.4159
13114PW       W44276   8.597   2.252   3.821  0.3302 -0.2306  0.1509
13114PW      WP44277   8.565   2.386   3.846  0.2769 -0.1702 -0.2120
13114PW      WM44278   8.669   2.367   3.784 -0.0090 -0.0920 -0.1027
13115PW       W44279  12.117   5.216  12.526  0.3390  0.0073 -0.4485
13115PW      WP44280  12.220   5.125  12.553 -0.1810 -0.4973 -0.0197
13115PW      WM44281  12.037   5.217  12.412  0.2390 -0.4060 -0.3900
13116PW       W44282   1.722  11.736  12.467  0.4048  0.0797  0.0074
13116PW      WP44283   1.716  11.598  12.488  0.2425  0.1576  0.5862
13116PW      WM44284   1.835  11.658  12.491  0.1529 -0.1826  0.4161
13117PW       W44285   6.106   3.618   3.444 -0.1630  0.1138  0.3568
13117PW      WP44286   6.124   3.720   3.349 -0.3152  0.1604  0.3763
13117PW      WM44287   6.104   3.480   3.425  0.4688  0.1535 -0.1799
13118PW       W44288   7.918   0.594   1.141  0.3066 -0.5538  0.2178
13118PW      WP44289   8.019   0.598   1.044  0.3718 -0.1104  0.2934
13118PW      WM44290   8.039   0.562   1.204  0.3515 -0.3538  0.2358
13119PW       W44291   9.286   7.834   3.214  0.3652 -0.0396  0.4387
13119PW      WP44292   9.228   7.709   3.186  0.5024 -0.0484  0.1775
13119PW      WM44293   9.397   7.884   3.145  0.2125 -0.3743 -0.0844
13120PW       W44294   0.389   4.046   0.407  0.0218  0.3882  0.1206
13120PW      WP44295   0.462   3.943   0.466 -0.1974 -0.0557 -0.3497
13120PW      WM44296   0.314   4.164   0.391 -0.0878  0.2941 -0.0815
13121PW       W44297   4.429   8.835   4.729  0.1475  0.1335  0.6217
13121PW      WP44298   4.477   8.946   4.801  0.3791  0.7494 -0.3703
13121PW      WM44299   4.293   8.814   4.708  0.2625 -0.3330  0.2738
13122PW       W44300  10.720   9.338   2.449 -0.1591 -0.2307 -0.1772
13122PW      WP44301  10.768   9.424   2.349  0.1114 -0.2915 -0.1032
13122PW      WM44302  10.806   9.228   2.438  0.4358  0.2484 -0.7460
13123PW       W44303   2.170   0.485   2.249 -0.2039  0.2627 -0.1646
13123PW      WP44304   2.155   0.542   2.376 -0.3857 -0.1773  0.0228
13123PW      WM44305   2.296   0.515   2.196  0.0103 -0.1257  0.1030
13124PW       W44306   2.658   8.396  11.928  0.3426  0.2606 -0.0762
13124PW      WP44307   2.755   8.487  11.884  0.2985  0.0559 -0.6357
13124PW      WM44308   2.540   8.337  11.973  0.3191  0.1014 -0.3336
13125PW       W44309   4.795   9.536   4.120  0.2531  0.0926 -0.1255
13125PW      WP44310   4.746   9.405   4.105 -0.4527  0.2871  0.2605
13125PW      WM44311   4.746   9.602   4.007 -0.0846  0.3203  0.1445
13126PW       W44312  11.324   3.420  12.399  0.1359 -0.0218 -0.1810
13126PW      WP44313  11.188   3.392  12.421  0.1540 -0.1127 -0.1805
13126PW      WM44314  11.409   3.527  12.369  0.2047  0.1072  0.4126
13127PW       W44315   5.919  11.975  -0.023 -0.0482 -0.1601 -0.1461
13127PW      WP44316   5.992  11.861   0.014 -0.4214 -0.4462 -0.2617
13127PW      WM44317   5.875  12.101   0.022  0.4898 -0.1459  0.4076
13128PW       W44318  10.090  11.781   9.853  0.2125  0.0654  0.0921
13128PW      WP44319  10.011  11.757   9.739  0.1589  0.2011  0.1011
13128PW      WM44320  10.086  11.897   9.776 -0.3023 -0.0052 -0.0040
13129PW       W44321  11.833   8.980   0.555  0.0609 -0.2303 -0.0039
13129PW      WP44322  11.860   8.983   0.693 -0.3302  0.0785  0.0766
13129PW      WM44323  11.695   8.996   0.536  0.0292  0.6038  0.6072
13130PW       W44324   1.321   7.560  11.132  0.4885 -0.2471  0.2276
13130PW      WP44325   1.354   7.674  11.058  0.2132  0.1667  0.7097
13130PW      WM44326   1.305   7.674  11.212 -0.2346  0.0011 -0.2273
13131PW       W44327   5.972   4.949  13.069  0.3222 -0.2059  0.1919
13131PW      WP44328   6.040   5.071  13.061 -0.0147 -0.0359 -0.2982
13131PW      WM44329   5.959   4.846  13.162  0.3780 -0.1156  0.3020
13132PW       W44330   2.721   4.362   2.066  0.2498  0.3400 -0.0774
13132PW      WP44331   2.719   4.224   2.044  0.0553  0.2485  0.4541
13132PW      WM44332   2.794   4.321   1.954  0.4655  0.6676 -0.0675
13133PW       W44333   5.755   0.674   9.455 -0.2422  0.0265  0.1364
13133PW      WP44334   5.856   0.625   9.539 -0.4302 -0.3383  0.1571
13133PW      WM44335   5.689   0.792   9.420  0.2685  0.2302 -0.2049
13134PW       W44336  11.912   5.483   0.088  0.3538 -0.2872 -0.3530
13134PW      WP44337  12.038   5.499   0.028  0.5975  0.2034  0.2333
13134PW      WM44338  12.009   5.573   0.133  0.0703  0.1047 -0.4939
13135PW       W44339   7.879   5.711  11.193  0.1354 -0.1260  0.0669
13135PW      WP44340   7.950   5.625  11.108  0.0079  0.2004 -0.3904
13135PW      WM44341   7.758   5.779  11.173  0.3230  0.1785 -0.0672
13136PW       W44342  11.431   8.790   4.345  0.0102 -0.0358  0.4223
13136PW      WP44343  11.336   8.756   4.442  0.3638 -0.1395  0.7403
13136PW      WM44344  11.547   8.738   4.286 -0.1136  0.3598 -0.2199
13137PW       W44345   5.453   3.978  12.995  0.1706 -0.2751 -0.0668
13137PW      WP44346   5.423   3.876  13.087  0.0298 -0.0172  0.1810
13137PW      WM44347   5.387   4.046  12.891  0.1738 -0.2812 -0.0729
13138PW       W44348   7.766   2.881   3.648 -0.0530  0.4828  0.1180
13138PW      WP44349   7.647   2.824   3.694  0.1573 -0.4833 -0.3858
13138PW      WM44350   7.737   3.010   3.604 -0.5981  0.3867  0.1624
13139PW       W44351  11.580  11.445   3.031  0.1518  0.1955  0.0117
13139PW      WP44352  11.555  11.389   3.157  0.5004  0.0989  0.0426
13139PW      WM44353  11.667  11.383   2.940  0.1727  0.2527 -0.0074
13140PW       W44354   8.611   5.331   2.520  0.2379  0.2150  0.0746
13140PW      WP44355   8.701   5.291   2.620 -0.3315 -0.1718  0.4638
13140PW      WM44356   8.692   5.372   2.413 -0.4553  0.0311 -0.5615
13141PW       W44357   2.796   2.823   3.933 -0.1661 -0.2434 -0.2010
13141PW      WP44358   2.732   2.876   3.820 -0.0731  0.1384 -0.0830
13141PW      WM44359   2.658   2.836   3.912 -0.1791  0.2903  0.1269
13142PW       W44360   0.847   1.122  11.432 -0.1523 -0.1944  0.0653
13142PW      WP44361   0.772   1.048  11.524 -0.2981 -0.0590  0.0570
13142PW      WM44362   0.838   1.237  11.352  0.2721 -0.2077 -0.0148
13143PW       W44363   1.876  12.133  10.759  0.5294 -0.0885  0.3415
13143PW      WP44364   1.939  12.042  10.846  0.1209 -0.2834  0.4421
13143PW      WM44365   1.942  12.217  10.668 -0.0601  0.4570  0.3796
13144PW       W44366   1.898  11.521   3.830 -0.3961  0.2217  0.0517
13144PW      WP44367   1.929  11.444   3.718  0.3380 -0.5263  0.7041
13144PW      WM44368   1.859  11.517   3.965 -0.3333  0.1201  0.0669
13145PW       W44369   2.838   4.176   1.021 -0.1447  0.0399 -0.0319
13145PW      WP44370   2.802   4.310   0.996 -0.4661 -0.0824 -0.2635
13145PW      WM44371   2.960   4.190   1.087 -0.2085 -0.0489  0.1052
13146PW       W44372   1.374   2.063   0.620  0.1005  0.0635 -0.0963
13146PW      WP44373   1.458   2.032   0.512 -0.2506  0.1179 -0.3924
13146PW      WM44374   1.444   2.169   0.561  0.7811 -0.4380 -0.2518
13147PW       W44375   6.306   7.475   9.995 -0.1353 -0.2092 -0.0790
13147PW      WP44376   6.318   7.604  10.047 -0.5188 -0.1110 -0.2145
13147PW      WM44377   6.231   7.547  10.089  0.2329  0.2117 -0.0942
13148PW       W44378   0.006  10.666  11.681  0.5957  0.2261  0.3526
13148PW      WP44379   0.061  10.570  11.767  0.2698 -0.2324  0.0713
13148PW      WM44380  -0.028  10.737  11.565  0.2111 -0.0744  0.2728
13149PW       W44381   9.843   1.499  11.106 -0.2016 -0.2505 -0.2308
13149PW      WP44382   9.813   1.554  10.981 -0.4160 -0.3964 -0.2463
13149PW      WM44383   9.774   1.552  11.215 -0.1587 -0.0863 -0.2821
13150PW       W44384   3.466   5.099  12.797 -0.1818 -0.2400  0.0070
13150PW      WP44385   3.523   5.136  12.919 -0.3285 -0.3031  0.0954
13150PW      WM44386   3.362   5.009  12.818 -0.7694  0.3092 -0.3539
13151PW       W44387   7.472   0.436   8.211  0.3501  0.1935 -0.2971
13151PW      WP44388   7.351   0.411   8.144  0.3537 -0.3405 -0.1292
13151PW      WM44389   7.457   0.500   8.335 -0.2197 -0.7916  0.2035
13152PW       W44390   2.409   6.139   9.635  0.1005  0.0651  0.0615
13152PW      WP44391   2.313   6.193   9.722 -0.0064 -0.2140  0.1228
13152PW      WM44392   2.539   6.109   9.593  0.2241  0.0309  0.4440
13153PW       W44393   9.659   2.771  11.359 -0.1237  0.0853  0.0976
13153PW      WP44394   9.794   2.755  11.329 -0.1171 -0.1827  0.2490
13153PW      WM44395   9.575   2.745  11.250  0.1529 -0.1293 -0.0726
13154PW       W44396  10.665   5.790   1.758  0.1010  0.0712  0.3172
13154PW      WP44397  10.805   5.794   1.766  0.1054 -0.1431  0.4011
13154PW      WM44398  10.644   5.702   1.865  0.2469 -0.1060  0.2043
13155PW       W44399   1.337   2.428  13.150 -0.0065  0.1939 -0.3935
13155PW      WP44400   1.284   2.512  13.052 -0.1355  0.7211  0.0990
13155PW      WM44401   1.342   2.527  13.248 -0.0952 -0.2426  0.0775
13156PW       W44402  10.148   5.957  11.595  0.0718 -0.1533  0.1690
13156PW      WP44403  10.038   5.911  11.668  0.1144 -0.8776 -0.1837
13156PW      WM44404  10.257   5.973  11.509 -0.1221 -0.0642 -0.0645
13157PW       W44405  11.253   2.981  12.702  0.3720 -0.1587  0.2730
13157PW      WP44406  11.137   2.935  12.764  0.0705  0.0901 -0.0842
13157PW      WM44407  11.292   3.112  12.669  0.2695 -0.2917 -0.4556
13158PW       W44408   5.518   2.161  12.472  0.0879 -0.0639 -0.2365
13158PW      WP44409   5.647   2.108  12.463  0.2809  0.3543 -0.0589
13158PW      WM44410   5.489   2.278  12.401  0.1754  0.1938  0.1394
13159CA      CA44411   0.977   4.481   4.715  0.0271  0.0846 -0.1969
13160CA      CA44412   6.098  10.401   5.258  0.2242 -0.1576 -0.2839
13161CA      CA44413   4.258   0.016   0.041 -0.2178  0.3343 -0.1791
13162CA      CA44414  11.787   7.574   4.936 -0.1404 -0.2603  0.3139
13163CA      CA44415   2.196   2.857   3.956 -0.0605 -0.2600  0.0036
13164CA      CA44416   1.343   3.046   4.848  0.3107 -0.0347  0.1320
13165CA      CA44417  10.881   6.747   5.275 -0.2653  0.0595 -0.1877
13166CA      CA44418   9.789   6.072   5.161  0.1371  0.2425 -0.2042
13167CA      CA44419   0.046   0.132   5.371  0.2525  0.1435 -0.1968
13168CA      CA44420  10.806   7.963   8.762 -0.0986  0.0704  0.3251
13169CA      CA44421   1.204   1.003   8.423 -0.0133 -0.0048  0.3513
13170CA      CA44422   1.285   0.422   8.546  0.1074  0.0686 -0.0907
13171CA      CA44423  10.934   4.080   8.673 -0.0069 -0.3626 -0.1272
13172CA      CA44424   5.945   1.127   4.892  0.0597  0.1958 -0.1131
13173CA      CA44425   8.195  11.371   8.478 -0.1889 -0.1179  0.3795
13174CA      CA44426   7.887   5.638   8.927 -0.2603  0.2751 -0.1502
13175CA      CA44427   6.948   7.081   8.481 -0.1248 -0.2000  0.1566
13176CA      CA44428   7.704   9.108  10.722  0.0082 -0.3265 -0.2501
13177CA      CA44429  10.089   7.208   5.055  0.0480 -0.0835 -0.2312
13178CA      CA44430   3.296   7.193   8.685 -0.1158  0.1288  0.0209
13179CA      CA44431   0.124   6.694   8.558  0.0065  0.4472  0.0942
13180CA      CA44432   9.912  10.235   8.583 -0.0890 -0.1561  0.1166
13181CA      CA44433   1.726   5.028   8.201 -0.2207  0.0263  0.0794
13182CA      CA44434   0.772   3.797   8.350 -0.2517 -0.2679  0.0869
13183CA      CA44435   9.567   5.518   5.182 -0.1023  0.1599  0.1035
13184CA      CA44436  11.430   9.732   8.969 -0.0259 -0.1047  0.2536
13185CA      CA44437   8.941   7.663   4.880  0.0226 -0.0454 -0.3392
13186CA      CA44438  11.871   2.428   8.530 -0.1265 -0.1193 -0.1097
13187CA      CA44439   7.098  10.799   8.414 -0.1574 -0.1522 -0.1793
13188CA      CA44440   7.691   7.329   5.240  0.0375 -0.1603 -0.2332
13189CA      CA44441   8.658   0.100   8.418 -0.1867 -0.3765  0.0043
13190CA      CA44442   5.825   5.418   8.321 -0.1915 -0.0499  0.3100
13191CA      CA44443   6.505  10.477   8.317 -0.1604  0.0832 -0.0165
13192CA      CA44444   7.449   6.266  12.183 -0.3596 -0.0140  0.1298
13193CA      CA44445  11.455   7.233   5.047 -0.1164 -0.0089  0.0652
13194CA      CA44446   5.369  11.611   8.706  0.3085 -0.0594  0.4001
13195CA      CA44447   4.887   1.672   5.241 -0.0361 -0.1608 -0.2550
13196CA      CA44448  10.635   5.437   0.678 -0.0365 -0.0274  0.1708
13197CA      CA44449  10.700   7.685   5.145 -0.1032  0.2832  0.0916
13198CA      CA44450   9.968  11.427   5.037  0.1786  0.2009  0.0629
13199CA      CA44451   0.047   0.037   8.746  0.1233  0.3829 -0.3618
13200CA      CA44452   1.134   8.973   9.842 -0.0986 -0.0181  0.0548
13201CA      CA44453   3.415   3.919   5.336 -0.0774 -0.3432 -0.2024
13202CA      CA44454   3.380   5.577   5.201  0.0008 -0.0301  0.0920
13203CA      CA44455   4.246   7.879  12.835  0.2784  0.1794 -0.3407
13204CA      CA44456   6.208   7.947   4.984  0.0703  0.1895  0.0698
13205CA      CA44457   5.085   4.341   0.947 -0.1654 -0.2080 -0.2189
13206CA      CA44458  10.314  12.091   5.210 -0.0713 -0.3167  0.2917
13207CA      CA44459   1.383   6.987   8.777  0.2318  0.0796  0.0410
13208CA      CA44460   2.116   0.335   8.668 -0.2009  0.0274  0.0932
13209CA      CA44461   7.583   3.239   5.441  0.0303 -0.0757 -0.0649
13210CA      CA44462   8.180   1.499  11.957 -0.1740  0.0012  0.1509
13211CA      CA44463   2.036   8.802   4.865 -0.0844  0.0265 -0.1962
13212CA      CA44464   0.891   2.982   8.637  0.0523 -0.0469 -0.0427
13213CA      CA44465   4.826   0.830   5.270 -0.2530  0.3161 -0.0527
13214CA      CA44466   0.802   0.451   5.135 -0.2715  0.0950 -0.1022
13215CA      CA44467  10.162   1.008   5.191  0.0908  0.2282  0.1213
13216CA      CA44468   0.858  10.162   0.044 -0.1740 -0.2312 -0.1992
13217CA      CA44469   6.786  11.580   8.220  0.0069  0.0843 -0.1248
13218CA      CA44470   1.628  10.410   8.987  0.1936 -0.0438  0.2940
13219CA      CA44471   3.926   1.494   8.483 -0.0553 -0.1571 -0.3528
13220CA      CA44472   4.651   9.552   5.186 -0.1018  0.2439  0.3410
13221CA      CA44473   3.983  11.371  13.280 -0.0425  0.1701 -0.1428
13222CA      CA44474   7.893   1.961   8.832  0.3410 -0.1134  0.0631
13223CA      CA44475   5.631   0.414   2.119  0.2373 -0.0297 -0.0458
13224CA      CA44476   1.287  11.937   5.254 -0.0765 -0.2107  0.1954
13225CA      CA44477   2.124   7.263   8.627  0.2819 -0.5048 -0.0369
13226CA      CA44478  11.159   6.072   5.062 -0.2962  0.3396 -0.1850
13227CA      CA44479   1.358   4.286   9.529  0.0908  0.0092 -0.0008
13228CA      CA44480   6.906   8.572   8.362 -0.0291 -0.1616 -0.0318
13229CA      CA44481  11.120   2.908   5.058 -0.1069 -0.1352  0.0241
13230CA      CA44482   7.624  11.657   8.273  0.1105 -0.2920  0.0812
13231CA      CA44483   1.379   4.032   8.434 -0.1008  0.1049  0.1893
13232CA      CA44484   7.243   1.137   4.909 -0.0770 -0.1065  0.1178
13233CA      CA44485   0.795  11.612   8.481 -0.1738 -0.2652 -0.0147
13234CA      CA44486   4.178   7.888   8.558 -0.0024  0.0836 -0.0669
13235CA      CA44487   2.054   1.820   8.519 -0.0748  0.1686  0.3499
13236CA      CA44488  11.640   6.248   5.131 -0.0318  0.0079 -0.0118
13237CA      CA44489   2.329   2.666   1.759  0.0319 -0.0856  0.1540
13238CA      CA44490   0.108   7.957   4.866  0.0575  0.1890  0.2806
13239CL      CL44491   7.658  10.575   9.609 -0.0761 -0.0114 -0.0202
13240CL      CL44492   2.373  10.285   3.421  0.3248  0.0255 -0.1717
13241CL      CL44493   6.675   2.994  12.484  0.0961  0.0198 -0.2763
13242CL      CL44494   0.689   0.147   2.976  0.1813  0.2237  0.2134
13243CL      CL44495   3.705   4.552   1.905  0.0177  0.2710  0.2398
13244CL      CL44496   7.218  10.196   4.459  0.0924  0.1820 -0.1141
13245CL      CL44497   5.789   4.417  10.338 -0.5881  0.0711  0.2762
13246CL      CL44498   7.860   9.547   2.137  0.0962 -0.1210 -0.0698
13247CL      CL44499  10.856   1.181   0.864  0.0267 -0.2254  0.1182
13248CL      CL44500   4.063   2.001  12.826 -0.2460  0.2076 -0.2861
13249CL      CL44501   5.470   1.258   2.311 -0.4078 -0.1196  0.0386
13250CL      CL44502   7.872   0.794  12.755 -0.0420  0.0708 -0.0400
13251CL      CL44503   4.225   7.187   2.214  0.1204  0.1722  0.0377
13252CL      CL44504   7.475   2.658   1.738  0.2027 -0.1722 -0.1258
13253CL      CL44505   7.132   5.952   9.622  0.2077  0.2742 -0.1026
13254CL      CL44506   7.465   4.484   4.589  0.1941 -0.0356 -0.0451
13255CL      CL44507   8.985   9.597   9.544 -0.2083 -0.2825  0.3495
13256CL      CL44508  10.303   8.893  11.011  0.2421  0.0420 -0.3006
13257CL      CL44509   8.633   6.244  10.737  0.0446  0.0058 -0.2833
13258CL      CL44510  11.184  12.098  10.370 -0.0140 -0.4477 -0.0076
13259CL      CL44511   0.645   7.322   3.336 -0.0096 -0.3916  0.3404
13260CL      CL44512   3.478   7.812  11.859  0.0597  0.0660 -0.0200
13261CL      CL44513  11.016   8.924   1.204 -0.0686  0.0690  0.0091
13262CL      CL44514  11.632   4.184   3.510 -0.2328  0.1830  0.1274
13263CL      CL44515   1.096   8.609   2.775 -0.0685 -0.2448 -0.1563
13264CL      CL44516   3.371   4.594   0.212 -0.2398 -0.2130  0.1495
13265CL      CL44517   1.343  11.455   9.843  0.0087 -0.0161 -0.0637
13266CL      CL44518   4.562  11.001  13.350 -0.0148  0.0076 -0.0812
13267CL      CL44519   8.330   2.269  11.328 -0.1567  0.0331 -0.2962
13268CL      CL44520   8.900   5.063  12.841  0.0645  0.2325 -0.2512
13269CL      CL44521   4.963   4.928   2.963 -0.2829 -0.2410  0.1859
13270CL      CL44522   4.302   4.926   1.411 -0.0838 -0.1514 -0.2618
13271CL      CL44523   4.710   1.170   3.285  0.1052  0.0554  0.2345
13272CL      CL44524   1.434   1.988   0.134 -0.0805  0.1386 -0.1122
13273CL      CL44525   1.051   3.506   9.382 -0.2129 -0.0882 -0.3457
13274CL      CL44526   9.990  10.346   2.985  0.0109  0.4070  0.0459
13275CL      CL44527  10.769   8.093  11.516  0.1309 -0.1059  0.1111
13276CL      CL44528   9.678   8.400  13.244  0.1959 -0.0122 -0.1266
13277CL      CL44529  10.336   8.010   2.429 -0.0569  0.0523 -0.2340
13278CL      CL44530   0.955   4.219  10.882 -0.0706  0.0625 -0.0325
13279CL      CL44531   0.010   2.686   9.529  0.0580  0.0141  0.0451
13280CL      CL44532   1.770   3.612   3.923 -0.0674  0.1303  0.0755
13281CL      CL44533   2.306   2.793  12.841  0.0694  0.0874 -0.0812
13282CL      CL44534   4.800   0.570   1.040 -0.0452 -0.0703 -0.3107
13283CL      CL44535   8.238   0.881  10.436 -0.1972 -0.1057 -0.2927
13284CL      CL44536   7.412   6.319   4.172  0.0119 -0.0521 -0.0047
13285CL      CL44537   4.782   8.223  11.986  0.1078  0.1582  0.2317
13286CL      CL44538   4.268   7.091   8.977  0.0189  0.1859 -0.0236
13287CL      CL44539  11.632   9.346  12.729  0.0345 -0.0128 -0.1437
13288CL      CL44540   8.848  10.651   1.054 -0.0706 -0.2501 -0.0000
13289CL      CL44541   9.545   0.641  12.850 -0.2029  0.0763  0.2518
13290CL      CL44542   0.550   4.844   9.470  0.0980 -0.1297  0.0644
13291CL      CL44543   1.736   8.237   1.178  0.3844  0.0471 -0.0410
13292CL      CL44544  10.019   9.796   0.747  0.1623  0.2600  0.1284
13293CL      CL44545   3.537   3.720   4.448 -0.1777  0.0375  0.1107
13294CL      CL44546   0.193  11.140   1.197  0.0332  0.1315 -0.1964
13295CL      CL44547   3.529  12.094   4.611 -0.1757 -0.1866  0.0612
13296CL      CL44548   9.163   2.069   1.079 -0.1088  0.0647  0.2596
13297CL      CL44549   7.466   6.714  13.050  0.0647  0.0843  0.1238
13298CL      CL44550   8.105   2.100   0.639 -0.1888 -0.2612  0.1183
13299CL      CL44551   8.526   8.873   0.556  0.0443  0.0287  0.1300
13300CL      CL44552   9.953   6.809  10.357  0.0114 -0.0152  0.2696
13301CL      CL44553   6.912   7.675  11.707 -0.0432  0.1732  0.2041
13302CL      CL44554   5.569   1.917  12.920  0.0509  0.3732 -0.0026
13303CL      CL44555   1.410   0.371  11.429  0.2623 -0.1749  0.0744
13304CL      CL44556   9.930   3.976  11.384  0.0598  0.0859 -0.0809
13305CL      CL44557   3.379   1.664   0.223 -0.1166  0.0384 -0.1095
13306CL      CL44558   1.705   2.340   3.334 -0.1092 -0.3532  0.3016
13307CL      CL44559   9.667   3.392   2.002  0.3149 -0.2894 -0.0906
13308CL      CL44560   1.425  10.631   1.046 -0.0965 -0.2795  0.0670
13309CL      CL44561   1.845   1.411   2.569  0.1501 -0.0577  0.0901
13310CL      CL44562   1.148  12.082   3.876  0.0083 -0.1420 -0.0989
13311CL      CL44563   9.513   2.164   9.750 -0.0308  0.1161  0.0562
13312CL      CL44564   6.545  10.983  13.032 -0.2615  0.1933 -0.0019
13313CL      CL44565  11.012   9.018   3.165 -0.2214 -0.3441  0.1071
13314CL      CL44566   3.688   9.984   2.315 -0.0734 -0.1767 -0.3337
13315CL      CL44567  11.131   0.441  12.334  0.1186  0.1222 -0.1001
13316CL      CL44568   6.195  11.808  10.913 -0.0646  0.1594  0.2318
13317CL      CL44569  10.051  11.537   1.169  0.3680 -0.0155 -0.2524
13318CL      CL44570   5.134  10.098   3.088 -0.2352 -0.1636 -0.1163
13319CL      CL44571   7.891   7.541   0.954  0.0996 -0.0255 -0.1722
13320CL      CL44572   7.207   0.009   9.005 -0.1165  0.2971  0.3578
13321CL      CL44573   9.142   3.284  12.901 -0.1335 -0.1584  0.1637
13322CL      CL44574   7.553   1.425   0.426  0.2515 -0.0751  0.0927
13323CL      CL44575  10.124  10.809  13.242  0.0515  0.0513  0.0605
13324CL      CL44576  11.952   7.225   9.635  0.2632  0.2754 -0.4423
13325CL      CL44577  10.327   7.168  12.797 -0.0788 -0.1781  0.2332
13326CL      CL44578   5.827   6.384  10.849 -0.1572 -0.0563  0.1215
13327CL      CL44579   8.449   8.331   2.484  0.0564  0.0679  0.0397
13328CL      CL44580  10.678   7.254  11.746 -0.1256 -0.0963  0.1710
13329CL      CL44581   6.676   1.969   1.119 -0.0667 -0.1839  0.0532
13330CL      CL44582  11.566   0.030   4.304  0.0200 -0.1153 -0.1040
13331CL      CL44583   2.526   7.412   3.937 -0.1740 -0.0323 -0.0606
13332CL      CL44584   6.400   7.152   0.737 -0.0594 -0.1234 -0.1567
13333CL      CL44585   1.075   7.026  10.303  0.2773 -0.1690 -0.1677
13334CL      CL44586   9.800   6.303   4.755  0.0411 -0.0094 -0.1665
13335CL      CL44587   7.623   0.878  10.844  0.1045 -0.0503 -0.0251
13336CL      CL44588   4.385   5.871   9.384 -0.0089 -0.1128 -0.3928
13337CL      CL44589   1.201   9.635  10.520  0.3778 -0.1470  0.2072
13338CL      CL44590   4.748   5.636  10.270  0.0785 -0.1273 -0.0060
13339CL      CL44591   8.919  11.096  12.636 -0.0295  0.2396 -0.1757
13340CL      CL44592   5.737  11.573   9.150  0.1891  0.2965  0.1343
13341CL      CL44593   1.283  10.819   2.007  0.3108 -0.0389 -0.0484
13342CL      CL44594   4.771   9.189  10.886  0.1222 -0.2518  0.0596
13343CL      CL44595  10.539   2.553  13.054  0.2233 -0.0713 -0.1969
13344CL      CL44596  11.878   0.828  10.900 -0.2192 -0.0194 -0.5205
13345CL      CL44597   5.540   3.140   9.750  0.2319 -0.3312  0.1354
13346CL      CL44598   6.615   0.661   3.661 -0.0428  0.2197  0.1241
13347CL      CL44599   5.594   7.306   9.914  0.3175 -0.0758 -0.0283
13348CL      CL44600  12.115   4.878   3.041 -0.0346  0.1353 -0.0293
13349CL      CL44601   5.584  11.702   1.684 -0.0292  0.0303 -0.1984
13350CL      CL44602   7.162   9.177   1.751  0.3429 -0.0724  0.2096
13351CL      CL44603   7.233   1.387   3.651  0.1533 -0.1665 -0.1766
13352CL      CL44604   2.431   3.171   3.813 -0.1989 -0.0366  0.0632
13353CL      CL44605   4.517   9.860  12.073  0.1290 -0.1682  0.2898
13354CL      CL44606   2.282   3.160  10.900 -0.2792  0.3470 -0.1697
13355CL      CL44607   4.490   3.215  10.156 -0.3929 -0.0544 -0.1561
13356CL      CL44608   2.205   1.955   3.207 -0.2137 -0.0302  0.0028
13357CL      CL44609   3.104   9.580  10.958  0.1618  0.0826  0.4097
13358CL      CL44610  11.579   8.097   2.721  0.1184 -0.2716 -0.1605
13359CL      CL44611   5.282  12.046  12.822 -0.1649  0.0413  0.3151
13360CL      CL44612   5.469   2.006  11.696  0.0837  0.0165  0.0325
13361CL      CL44613   9.947   5.683   3.489 -0.2495 -0.1213  0.2151
13362CL      CL44614  10.717   4.241  10.038 -0.1755  0.0821  0.3491
13363CL      CL44615   1.939   4.776   9.199  0.1982  0.1745  0.0741
13364CL      CL44616   2.893   8.203  12.475 -0.1449  0.0033  0.4501
13365CL      CL44617   4.307   8.474   9.562 -0.0705  0.2203  0.0544
13366CL      CL44618   3.880  10.998   3.978  0.0848 -0.2825 -0.0442
13367CL      CL44619   5.261   8.555  10.565 -0.2266  0.0851 -0.1092
13368CL      CL44620   3.935   0.346  10.724  0.3797  0.0997  0.0730
13369CL      CL44621   6.841   8.008   0.330 -0.0826 -0.2183  0.3175
13370CL      CL44622   5.411  11.800   9.765  0.3063  0.2409 -0.0763
13371CL      CL44623   4.013   6.839   0.951  0.0882  0.3020 -0.1201
13372CL      CL44624   4.651   8.308   0.187  0.2146 -0.0025 -0.0085
13373CL      CL44625   5.213  10.980   1.080  0.0138  0.0679  0.2133
13374CL      CL44626   9.187  10.109  11.285 -0.4875  0.1867 -0.0505
13375CL      CL44627   5.312   8.260  13.208 -0.3874  0.1483  0.1612
13376CL      CL44628  11.676   2.843   0.863 -0.2317  0.1960  0.2265
13377CL      CL44629  12.134  11.020  12.864 -0.2580 -0.0463  0.1531
13378CL      CL44630   1.094   5.900  12.284  0.1359  0.0288 -0.0314
13379CL      CL44631  11.946   7.171   3.954  0.0557  0.1561 -0.1176
13380CL      CL44632   2.775   0.426  10.474 -0.0827 -0.0567 -0.1021
13381CL      CL44633  10.159   0.110   9.549 -0.0612 -0.2288 -0.0029
13382CL      CL44634   7.175   7.735   3.918 -0.0010  0.1096  0.0440
13383CL      CL44635   5.457  11.196  10.918 -0.0746 -0.1144  0.0687
13384CL      CL44636   1.989   4.466  11.136 -0.0982  0.1902 -0.2206
13385CL      CL44637   1.597   5.365   0.566  0.0090  0.1147  0.1257
13386CL      CL44638  11.127   3.079  10.009 -0.2207  0.3077  0.0954
13387CL      CL44639  11.438  12.031  11.239  0.1923 -0.2465  0.0085
13388CL      CL44640   9.133   3.680   9.638  0.2554 -0.1707 -0.1271
13389CL      CL44641   8.773   9.932   3.541 -0.1580 -0.0194 -0.0413
13390CL      CL44642   4.582   2.783  10.640 -0.0981  0.0447  0.1042
13391CL      CL44643   9.172   4.277  10.350 -0.0057 -0.1516 -0.0186
13392CL      CL44644   4.525   1.370   2.256  0.1404  0.0830  0.0995
13393CL      CL44645   1.488   8.808  10.938  0.3011 -0.0498  0.0866
13394CL      CL44646   2.519   2.779   0.116 -0.2681  0.1391  0.2828
13395CL      CL44647   8.454  10.848   9.547  0.2235  0.2525  0.0606
13396CL      CL44648   7.303  10.869   3.482 -0.1349  0.0003 -0.0768
13397CL      CL44649   3.429   4.050   9.864 -0.0240 -0.1470  0.4359
13398CL      CL44650   5.208  11.220   4.142 -0.0067  0.2474  0.1255
13399NA      NA44651   3.312   5.869  10.791  0.2172  0.0564 -0.1583
13400NA      NA44652   0.357   4.068   3.954  0.3013  0.1743 -0.3813
13401NA      NA44653   6.077  12.075   4.679 -0.1672 -0.0968  0.1168
13402NA      NA44654   4.828   7.261   9.605  0.1953 -0.1110  0.2676
13403NA      NA44655   3.684   6.349   3.710 -0.3564 -0.1680 -0.1226
13404NA      NA44656   9.528  10.587   3.722 -0.3131  0.0541 -0.1108
13405NA      NA44657   2.226   3.002   0.995  0.1871 -0.0988 -0.2862
13406NA      NA44658   0.978   1.256   1.395 -0.0804 -0.1931  0.1019
13407NA      NA44659   9.716   3.162   2.400  0.0064  0.1878 -0.0837
13408NA      NA44660   8.342   8.579   0.949  0.1132 -0.0912 -0.1059
13409NA      NA44661   2.439  10.835   5.017  0.0649 -0.0880  0.1198
13410NA      NA44662   0.145   7.979  10.069  0.2088 -0.2442 -0.1617
13411NA      NA44663   7.759   3.884  11.179  0.1716 -0.3535 -0.3251
13412NA      NA44664   8.308   5.235   3.071 -0.2279  0.0095 -0.0930
13413NA      NA44665   7.986   7.270   4.590 -0.0246 -0.0558  0.3036
13414NA      NA44666   1.593  11.017   4.148  0.0741  0.2150 -0.1683
13415NA      NA44667   0.162   6.851   1.626  0.0687 -0.1873 -0.0227
13416NA      NA44668   5.609   7.226  11.104  0.1483  0.1797 -0.1366
13417NA      NA44669   2.625   0.520   2.545 -0.1114 -0.1208  0.3120
13418NA      NA44670   9.994   1.124   8.621 -0.1590  0.0598  0.0267
13419NA      NA44671   6.231   1.826   1.212 -0.0278  0.1441  0.0759
13420NA      NA44672   3.889   4.015   4.405  0.0172 -0.0634 -0.0375
13421NA      NA44673   0.185   8.814   4.742  0.0905 -0.0672  0.0004
13422NA      NA44674  11.538  11.274   2.088  0.0306  0.2049  0.0768
13423NA      NA44675   4.209   4.333   8.676  0.1937  0.3667  0.0377
13424NA      NA44676   8.264  11.149  13.359  0.1928 -0.1846 -0.0768
13425NA      NA44677  10.339   8.093  11.276  0.0371 -0.3369 -0.0097
13426NA      NA44678   9.201   7.969   1.072 -0.0971 -0.1785 -0.1247
13427NA      NA44679   6.176   4.598  12.643 -0.0981 -0.1556 -0.0130
13428NA      NA44680   4.592   9.583   3.662 -0.2027 -0.2060 -0.2023
13429NA      NA44681   4.478   6.592   3.528 -0.0028  0.1318  0.1732
13430NA      NA44682   1.334  12.119   4.837 -0.1808  0.1827  0.0721
13431NA      NA44683   2.876   1.091   9.815  0.3013 -0.1058  0.3271
13432NA      NA44684  11.439   7.314  12.250  0.1183 -0.0288  0.2276
13433NA      NA44685   1.257   5.298   1.716  0.1238 -0.0932  0.3179
13434NA      NA44686   2.949   0.903  10.610  0.1434  0.0327 -0.1733
13435NA      NA44687   7.575   6.285   9.198 -0.1022  0.0142 -0.1791
13436NA      NA44688   4.141   0.588  12.341  0.1454 -0.0579  0.2513
13437NA      NA44689   2.326   8.679   5.328 -0.1937 -0.0395 -0.1216
13438NA      NA44690   6.554   2.519  11.032  0.1857 -0.3214 -0.0983
13439NA      NA44691   9.290   8.429   2.128 -0.0165 -0.0703 -0.3053
13440NA      NA44692  11.358   2.234   4.457  0.0360  0.2532  0.5177
13441NA      NA44693   1.908   6.056   8.831 -0.2417 -0.2408  0.2893
13442NA      NA44694   8.665   5.682   8.726 -0.0458 -0.1320  0.0254
13443NA      NA44695   2.515   9.709   1.728 -0.0487  0.2918 -0.1411
13444NA      NA44696   6.268   2.867   2.976 -0.0050 -0.2747 -0.0165
13445NA      NA44697   1.103   6.069  11.376 -0.1222  0.2692  0.0729
13446NA      NA44698   7.825  10.388  13.256  0.2082 -0.1109 -0.0021
13447NA      NA44699  12.042  10.646   2.636 -0.1711 -0.0675 -0.1860
13448NA      NA44700   7.280   8.184   2.633 -0.1415 -0.1186  0.0244
13449NA      NA44701   9.208   7.516   9.233 -0.1510 -0.2226  0.1139
13450NA      NA44702   5.055   7.897  12.295 -0.1813  0.3359 -0.1496
13451NA      NA44703   3.742   9.566  10.002 -0.1152  0.0920  0.0223
13452NA      NA44704  11.866   0.396   4.218  0.0686  0.0259 -0.0156
13453NA      NA44705   2.695   3.566  10.192 -0.1527 -0.2716  0.0466
13454NA      NA44706   9.950   2.260   0.745  0.0481  0.0638  0.0931
13455NA      NA44707   4.235  10.535   3.215  0.0294 -0.2161 -0.0541
13456NA      NA44708   3.670  11.139   1.252 -0.0104  0.1800 -0.1284
13457NA      NA44709   9.799   0.988   0.123 -0.1469 -0.1060  0.0189
13458NA      NA44710   2.608  11.616   2.933  0.2684  0.1508  0.1176
13459NA      NA44711  10.322   7.015   8.582  0.0096  0.0836  0.2049
13460NA      NA44712  11.258   0.643   9.640 -0.0792  0.0647  0.2461
13461NA      NA44713   3.242  10.073  11.633 -0.0609 -0.2819 -0.0673
13462NA      NA44714   7.602   5.302  11.020 -0.1503  0.1186 -0.0532
13463NA      NA44715  10.539   6.355  11.807 -0.0935  0.1615 -0.0774
13464NA      NA44716   7.557   3.946   4.537  0.0043 -0.0915 -0.3168
13465NA      NA44717   0.056  11.221  10.938 -0.0086 -0.1639  0.0271
13466NA      NA44718   6.643   2.020   5.154 -0.1356  0.2876  0.0620
13467NA      NA44719  12.074   2.300  11.020 -0.2095 -0.0778 -0.0916
13468NA      NA44720  11.256  11.775  12.583  0.0663  0.1035  0.0120
13469NA      NA44721   5.991  11.129   8.339 -0.2279  0.0324 -0.1064
13470NA      NA44722  11.643   5.921   4.493  0.0663  0.1524 -0.6278
13471NA      NA44723  10.554   9.634   2.884 -0.1711  0.1058 -0.1086
13472NA      NA44724   6.281   5.540   2.643  0.0244 -0.1292 -0.1221
13473NA      NA44725   0.815  10.607   8.666 -0.1161 -0.1268 -0.1367
13474NA      NA44726   1.252  10.270   4.559  0.0675  0.1069  0.1597
13475NA      NA44727   7.181   1.006  12.718 -0.1552  0.1560  0.1033
13476NA      NA44728   2.520  11.209   0.387 -0.2687 -0.1774 -0.1287
13477NA      NA44729   7.635   8.465   0.821 -0.0994 -0.2815  0.3424
13478NA      NA44730   6.437   6.246   9.247  0.2202 -0.0412  0.1004
13479NA      NA44731   5.400   2.467  12.123  0.0037 -0.1500  0.0249
13480NA      NA44732   2.129   8.293   2.062 -0.1255 -0.0464 -0.1490
13481NA      NA44733   5.134   8.874  11.489 -0.0588  0.0005 -0.1874
13482NA      NA44734   7.200  10.482  12.293  0.0483 -0.0894 -0.1217
13483NA      NA44735   0.620   3.533  10.257  0.3680 -0.2918 -0.0604
13484NA      NA44736   6.666   6.821  13.309 -0.1502  0.1044  0.2387
13485NA      NA44737   4.659   5.017   8.530  0.2007  0.1782 -0.0697
13486NA      NA44738   1.384   3.577  12.902 -0.1754 -0.2159 -0.0590
13487NA      NA44739   4.946   7.906   0.126  0.2015 -0.0984 -0.2516
13488NA      NA44740   9.129   9.189  11.025  0.1224  0.0796  0.0561
13489NA      NA44741   4.368   3.008   3.716 -0.0461  0.0780 -0.0820
13490NA      NA44742  11.750   2.031   5.165  0.0975  0.0853 -0.0740
13491NA      NA44743  11.578   4.844  12.903  0.1143  0.0878  0.0098
13492NA      NA44744   5.914   5.208  11.206 -0.0040 -0.1215 -0.2762
13493NA      NA44745   9.368   4.284   3.853  0.0970  0.1324  0.2026
13494NA      NA44746   7.123  11.437  11.052  0.3730  0.1391 -0.0465
13495NA      NA44747   5.822  11.784   2.537 -0.0836  0.2777  0.1431
13496NA      NA44748   2.639   6.051  12.562  0.1853  0.1699  0.0954
13497NA      NA44749   9.161  10.581  12.588 -0.3218  0.0739  0.0756
13498NA      NA44750   2.922   3.770   3.719  0.3017  0.1128 -0.0276
13499NA      NA44751  10.113   5.911   1.804 -0.0708 -0.2170 -0.0047
13500NA      NA44752   9.300   2.859  11.104  0.0831 -0.0277  0.0906
  12.14434  12.14434  13.36372
