[ defaults ]
1 1 no 0.0 0.0

[ atomtypes ]
; name mass charge ptype c6 c12
; Beads from MARTINI 2.P nucleic acid extension
P5          72.0 0.00   A   0.0   0.0
P4          72.0 0.00   A   0.0   0.0
P3          72.0 0.00   A   0.0   0.0
P2          72.0 0.00   A   0.0   0.0
P1          72.0 0.00   A   0.0   0.0
Nda         72.0 0.00   A   0.0   0.0
Nd          72.0 0.00   A   0.0   0.0
Na          72.0 0.00   A   0.0   0.0
N0          72.0 0.00   A   0.0   0.0
C5          72.0 0.00   A   0.0   0.0
C4          72.0 0.00   A   0.0   0.0
C3          72.0 0.00   A   0.0   0.0
C2          72.0 0.00   A   0.0   0.0
C1          72.0 0.00   A   0.0   0.0
Qda         72.0 0.00   A   0.0   0.0
Qd          72.0 0.00   A   0.0   0.0
Qa          72.0 0.00   A   0.0   0.0
Q0          72.0 0.00   A   0.0   0.0
SP5         45.0 0.00   A   0.0   0.0
SP4         45.0 0.00   A   0.0   0.0
SP3         45.0 0.00   A   0.0   0.0
SP2         45.0 0.00   A   0.0   0.0
SP1         45.0 0.00   A   0.0   0.0
SNda        45.0 0.00   A   0.0   0.0
SNd         45.0 0.00   A   0.0   0.0
SNa         45.0 0.00   A   0.0   0.0
SN0         45.0 0.00   A   0.0   0.0
SC5         45.0 0.00   A   0.0   0.0
SC4         45.0 0.00   A   0.0   0.0
SC3         45.0 0.00   A   0.0   0.0
SC2         45.0 0.00   A   0.0   0.0
SC1         45.0 0.00   A   0.0   0.0
SQda        45.0 0.00   A   0.0   0.0
SQd         45.0 0.00   A   0.0   0.0
SQa         45.0 0.00   A   0.0   0.0
SQ0         45.0 0.00   A   0.0   0.0
POL         24.0 0.00   A   0.0   0.0
D           24.0 0.00   A   0.0   0.0
; Central particles of polarized beads with internal dipoles
PP5_L       24.0 0.00   A   0.0   0.0
PP5_P_RL    24.0 0.00   A   0.0   0.0
PNa_L       24.0 0.00   A   0.0   0.0
PNa         24.0 0.00   A   0.0   0.0
PP5         24.0 0.00   A   0.0   0.0
; Dummy particles of polarized beads with internal dipoles
D1          24.0 0.00   A   0.0   0.0
D2          24.0 0.00   A   0.0   0.0
D1A         24.0 0.00   A   0.0   0.0
D2A         15.0 0.00   A   0.0   0.0
; Newly defined non-polarized beads
Qa_L        72.0 0.00   A   0.0   0.0
Qdi         72.0 0.00   A   0.0   0.0
C3_P_RL     72.0 0.00   A   0.0   0.0
Q0_L        72.0 0.00   A   0.0   0.0
C1_P        72.0 0.00   A   0.0   0.0
Qd_P        72.0 0.00   A   0.0   0.0
QaG         72.0 0.00   A   0.0   0.0
C3_P        72.0 0.00   A   0.0   0.0

[ nonbond_params ]
; i j funct c6 c12; sigma epsilon
C3         	C3         	 1 1.509E-01 1.627E-03 ; 0.470; 3.500
C1         	C1         	 1 1.509E-01 1.627E-03 ; 0.470; 3.500
Qd         	Qd         	 1 1.509E-01 1.627E-03 ; 0.470; 3.500
Qa         	Qa         	 1 1.509E-01 1.627E-03 ; 0.470; 3.500
Q0         	Q0         	 1 1.509E-01 1.627E-03 ; 0.470; 3.500
POL        	POL        	 1 1.725E-01 1.859E-03 ; 0.470; 4.000
D          	D          	 1 0.000E+00 0.000E+00 ; no LJ interaction
C3         	C1         	 1 1.509E-01 1.627E-03 ; 0.470; 3.500
C3         	Qd         	 1 1.164E-01 1.255E-03 ; 0.470; 2.700
C3         	Qa         	 1 1.164E-01 1.255E-03 ; 0.470; 2.700
C3         	Q0         	 1 1.164E-01 1.255E-03 ; 0.470; 2.700
C1         	Qd         	 1 9.917E-02 1.069E-03 ; 0.470; 2.300
C1         	Qa         	 1 9.917E-02 1.069E-03 ; 0.470; 2.300
C1         	Q0         	 1 9.917E-02 1.069E-03 ; 0.470; 2.300
Qd         	Qa         	 1 1.725E-01 1.859E-03 ; 0.470; 4.000
Qd         	Q0         	 1 9.917E-02 1.069E-03 ; 0.470; 2.300
Qa         	Q0         	 1 9.917E-02 1.069E-03 ; 0.470; 2.300
POL        	C3         	 1 1.108E-01 1.194E-03 ; 0.470; 2.570
POL        	C1         	 1 4.312E-02 4.648E-04 ; 0.470; 1.000
POL        	Qd         	 1 2.156E-01 2.324E-03 ; 0.470; 5.000
POL        	Qa         	 1 2.156E-01 2.324E-03 ; 0.470; 5.000
POL        	Q0         	 1 1.940E-01 2.091E-03 ; 0.470; 4.500
D          	C3         	 1 0.000E+00 0.000E+00 ; no LJ interaction
D          	C1         	 1 0.000E+00 0.000E+00 ; no LJ interaction
D          	Qd         	 1 0.000E+00 0.000E+00 ; no LJ interaction
D          	Qa         	 1 0.000E+00 0.000E+00 ; no LJ interaction
D          	Q0         	 1 0.000E+00 0.000E+00 ; no LJ interaction
Qa_L       	Qa_L       	 1 1.509E-01 1.627E-03 ; 0.470; 3.500
Qdi        	Qdi        	 1 7.685E-02 4.218E-04 ; 0.420; 3.500
PP5_L      	PP5_L      	 1 2.164E-01 2.333E-03 ; 0.470; 5.020
PP5_P_RL   	PP5_P_RL   	 1 2.164E-01 2.333E-03 ; 0.470; 5.020
C3_P_RL    	C3_P_RL    	 1 1.509E-01 1.627E-03 ; 0.470; 3.500
PNa_L      	PNa_L      	 1 1.380E-01 1.487E-03 ; 0.470; 3.200
PNa        	PNa        	 1 1.380E-01 1.487E-03 ; 0.470; 3.200
Q0_L       	Q0_L       	 1 1.509E-01 1.627E-03 ; 0.470; 3.500
PP5        	PP5        	 1 2.164E-01 2.333E-03 ; 0.470; 5.020
C1_P       	C1_P       	 1 1.509E-01 1.627E-03 ; 0.470; 3.500
Qd_P       	Qd_P       	 1 1.509E-01 1.627E-03 ; 0.470; 3.500
QaG        	QaG        	 1 1.509E-01 1.627E-03 ; 0.470; 3.500
C3_P       	C3_P       	 1 1.509E-01 1.627E-03 ; 0.470; 3.500
Qdi        	Qa_L       	 1 8.782E-02 4.821E-04 ; 0.420; 4.000
PP5_L      	Qa_L       	 1 2.294E-01 2.473E-03 ; 0.470; 5.320
PP5_P_RL   	Qa_L       	 1 0.000E+00 2.472E-03 ; 0.0; inf
C3_P_RL    	Qa_L       	 1 0.000E+00 2.472E-03 ; 0.0; inf
PNa_L      	Qa_L       	 1 1.552E-01 1.673E-03 ; 0.470; 3.600
PNa        	Qa_L       	 1 1.552E-01 1.673E-03 ; 0.470; 3.600
Qa_L       	Q0_L       	 1 9.917E-02 1.069E-03 ; 0.470; 2.300
PP5        	Qa_L       	 1 2.294E-01 2.473E-03 ; 0.470; 5.320
C1_P       	Qa_L       	 1 9.917E-02 1.069E-03 ; 0.470; 2.300
Qd_P       	Qa_L       	 1 1.725E-01 1.859E-03 ; 0.470; 4.000
Qa_L       	QaG        	 1 1.509E-01 1.627E-03 ; 0.470; 3.500
C3_P       	Qa_L       	 1 1.164E-01 1.255E-03 ; 0.470; 2.700
PP5_L      	Qdi        	 1 1.168E-01 6.412E-04 ; 0.420; 5.320
PP5_P_RL   	Qdi        	 1 2.294E-01 2.473E-03 ; 0.470; 5.320
C3_P_RL    	Qdi        	 1 1.164E-01 1.255E-03 ; 0.470; 2.700
PNa_L      	Qdi        	 1 9.792E-02 5.375E-04 ; 0.420; 4.460
PNa        	Qdi        	 1 9.792E-02 5.375E-04 ; 0.420; 4.460
Qdi        	Q0_L       	 1 5.050E-02 2.772E-04 ; 0.420; 2.300
PP5        	Qdi        	 1 1.168E-01 6.412E-04 ; 0.420; 5.320
C1_P       	Qdi        	 1 9.917E-02 1.069E-03 ; 0.470; 2.300
Qdi        	Qd_P       	 1 1.509E-01 1.627E-03 ; 0.470; 3.500
Qdi        	QaG        	 1 6.077E-02 2.308E-04 ; 0.395; 4.000
C3_P       	Qdi        	 1 1.164E-01 1.255E-03 ; 0.470; 2.700
PP5_L      	PP5_P_RL   	 1 0.000E+00 2.472E-03 ; 0.0; inf
PP5_L      	C3_P_RL    	 1 0.000E+00 2.472E-03 ; 0.0; inf
PP5_L      	PNa_L      	 1 2.026E-01 2.184E-03 ; 0.470; 4.700
PP5_L      	PNa        	 1 2.026E-01 2.184E-03 ; 0.470; 4.700
PP5_L      	Q0_L       	 1 2.294E-01 2.473E-03 ; 0.470; 5.320
PP5_L      	PP5        	 1 2.164E-01 2.333E-03 ; 0.470; 5.020
PP5_L      	C1_P       	 1 8.623E-02 9.295E-04 ; 0.470; 2.000
PP5_L      	Qd_P       	 1 2.294E-01 2.473E-03 ; 0.470; 5.320
PP5_L      	QaG        	 1 2.294E-01 2.473E-03 ; 0.470; 5.320
PP5_L      	C3_P       	 1 1.164E-01 1.255E-03 ; 0.470; 2.700
PP5_P_RL   	C3_P_RL    	 1 1.164E-01 1.255E-03 ; 0.470; 2.700
PP5_P_RL   	PNa_L      	 1 0.000E+00 2.472E-03 ; 0.0; inf
PP5_P_RL   	PNa        	 1 2.026E-01 2.184E-03 ; 0.470; 4.700
PP5_P_RL   	Q0_L       	 1 0.000E+00 2.472E-03 ; 0.0; inf
PP5_P_RL   	PP5        	 1 2.164E-01 2.333E-03 ; 0.470; 5.020
PP5_P_RL   	C1_P       	 1 8.623E-02 9.295E-04 ; 0.470; 2.000
PP5_P_RL   	Qd_P       	 1 2.294E-01 2.473E-03 ; 0.470; 5.320
PP5_P_RL   	QaG        	 1 2.294E-01 2.473E-03 ; 0.470; 5.320
PP5_P_RL   	C3_P       	 1 1.164E-01 1.255E-03 ; 0.470; 2.700
PNa_L      	C3_P_RL    	 1 0.000E+00 2.472E-03 ; 0.0; inf
PNa        	C3_P_RL    	 1 1.164E-01 1.255E-03 ; 0.470; 2.700
C3_P_RL    	Q0_L       	 1 0.000E+00 2.472E-03 ; 0.0; inf
PP5        	C3_P_RL    	 1 1.164E-01 1.255E-03 ; 0.470; 2.700
C3_P_RL    	C1_P       	 1 1.509E-01 1.627E-03 ; 0.470; 3.500
C3_P_RL    	Qd_P       	 1 1.164E-01 1.255E-03 ; 0.470; 2.700
C3_P_RL    	QaG        	 1 1.164E-01 1.255E-03 ; 0.470; 2.700
C3_P_RL    	C3_P       	 1 1.509E-01 1.627E-03 ; 0.470; 3.500
PNa_L      	PNa        	 1 1.380E-01 1.487E-03 ; 0.470; 3.200
PNa_L      	Q0_L       	 1 1.380E-01 1.487E-03 ; 0.470; 3.200
PP5        	PNa_L      	 1 2.026E-01 2.184E-03 ; 0.470; 4.700
PNa_L      	C1_P       	 1 1.164E-01 1.255E-03 ; 0.470; 2.700
PNa_L      	Qd_P       	 1 1.923E-01 2.073E-03 ; 0.470; 4.460
PNa_L      	QaG        	 1 1.552E-01 1.673E-03 ; 0.470; 3.600
PNa_L      	C3_P       	 1 1.164E-01 1.255E-03 ; 0.470; 2.700
PNa        	Q0_L       	 1 1.380E-01 1.487E-03 ; 0.470; 3.200
PP5        	PNa        	 1 2.026E-01 2.184E-03 ; 0.470; 4.700
PNa        	C1_P       	 1 1.164E-01 1.255E-03 ; 0.470; 2.700
PNa        	Qd_P       	 1 1.923E-01 2.073E-03 ; 0.470; 4.460
PNa        	QaG        	 1 1.552E-01 1.673E-03 ; 0.470; 3.600
PNa        	C3_P       	 1 1.164E-01 1.255E-03 ; 0.470; 2.700
PP5        	Q0_L       	 1 2.294E-01 2.473E-03 ; 0.470; 5.320
C1_P       	Q0_L       	 1 9.917E-02 1.069E-03 ; 0.470; 2.300
Qd_P       	Q0_L       	 1 9.917E-02 1.069E-03 ; 0.470; 2.300
QaG        	Q0_L       	 1 9.917E-02 1.069E-03 ; 0.470; 2.300
C3_P       	Q0_L       	 1 1.164E-01 1.255E-03 ; 0.470; 2.700
PP5        	C1_P       	 1 8.623E-02 9.295E-04 ; 0.470; 2.000
PP5        	Qd_P       	 1 2.294E-01 2.473E-03 ; 0.470; 5.320
PP5        	QaG        	 1 2.294E-01 2.473E-03 ; 0.470; 5.320
PP5        	C3_P       	 1 1.164E-01 1.255E-03 ; 0.470; 2.700
C1_P       	Qd_P       	 1 9.917E-02 1.069E-03 ; 0.470; 2.300
C1_P       	QaG        	 1 9.917E-02 1.069E-03 ; 0.470; 2.300
C3_P       	C1_P       	 1 1.509E-01 1.627E-03 ; 0.470; 3.500
Qd_P       	QaG        	 1 1.725E-01 1.859E-03 ; 0.470; 4.000
C3_P       	Qd_P       	 1 1.164E-01 1.255E-03 ; 0.470; 2.700
C3_P       	QaG        	 1 1.164E-01 1.255E-03 ; 0.470; 2.700
C1         	Qa_L       	 1 9.917E-02 1.069E-03 ; 0.470; 2.300
D          	Qa_L       	 1 0.000E+00 0.000E+00 ; no LJ interaction
Qa_L       	Qa         	 1 1.509E-01 1.627E-03 ; 0.470; 3.500
Qa_L       	Q0         	 1 9.917E-02 1.069E-03 ; 0.470; 2.300
POL        	Qa_L       	 1 2.156E-01 2.324E-03 ; 0.470; 5.000
C3         	Qa_L       	 1 1.164E-01 1.255E-03 ; 0.470; 2.700
Qd         	Qa_L       	 1 1.725E-01 1.859E-03 ; 0.470; 4.000
C1         	Qdi        	 1 5.050E-02 2.772E-04 ; 0.420; 2.300
D          	Qdi        	 1 0.000E+00 0.000E+00 ; no LJ interaction
Qdi        	Qa         	 1 8.782E-02 4.821E-04 ; 0.420; 4.000
Qdi        	Q0         	 1 5.050E-02 2.772E-04 ; 0.420; 2.300
POL        	Qdi        	 1 1.098E-01 6.026E-04 ; 0.420; 5.000
C3         	Qdi        	 1 5.928E-02 3.254E-04 ; 0.420; 2.700
Qdi        	Qd         	 1 7.685E-02 4.218E-04 ; 0.420; 3.500
PP5_L      	C1         	 1 8.623E-02 9.295E-04 ; 0.470; 2.000
D          	PP5_L      	 1 0.000E+00 0.000E+00 ; no LJ interaction
PP5_L      	Qa         	 1 2.294E-01 2.473E-03 ; 0.470; 5.320
PP5_L      	Q0         	 1 2.294E-01 2.473E-03 ; 0.470; 5.320
POL        	PP5_L      	 1 2.044E-01 2.203E-03 ; 0.470; 4.740
PP5_L      	C3         	 1 1.164E-01 1.255E-03 ; 0.470; 2.700
PP5_L      	Qd         	 1 2.294E-01 2.473E-03 ; 0.470; 5.320
PP5_P_RL   	C1         	 1 8.623E-02 9.295E-04 ; 0.470; 2.000
D          	PP5_P_RL   	 1 0.000E+00 0.000E+00 ; no LJ interaction
PP5_P_RL   	Qa         	 1 2.294E-01 2.473E-03 ; 0.470; 5.320
PP5_P_RL   	Q0         	 1 2.294E-01 2.473E-03 ; 0.470; 5.320
POL        	PP5_P_RL   	 1 2.044E-01 2.203E-03 ; 0.470; 4.740
PP5_P_RL   	C3         	 1 1.164E-01 1.255E-03 ; 0.470; 2.700
PP5_P_RL   	Qd         	 1 2.294E-01 2.473E-03 ; 0.470; 5.320
C3_P_RL    	C1         	 1 1.509E-01 1.627E-03 ; 0.470; 3.500
D          	C3_P_RL    	 1 0.000E+00 0.000E+00 ; no LJ interaction
C3_P_RL    	Qa         	 1 1.164E-01 1.255E-03 ; 0.470; 2.700
C3_P_RL    	Q0         	 1 1.164E-01 1.255E-03 ; 0.470; 2.700
POL        	C3_P_RL    	 1 1.108E-01 1.194E-03 ; 0.470; 2.570
C3_P_RL    	C3         	 1 1.509E-01 1.627E-03 ; 0.470; 3.500
C3_P_RL    	Qd         	 1 1.164E-01 1.255E-03 ; 0.470; 2.700
PNa_L      	C1         	 1 1.164E-01 1.255E-03 ; 0.470; 2.700
D          	PNa_L      	 1 0.000E+00 0.000E+00 ; no LJ interaction
PNa_L      	Qa         	 1 1.552E-01 1.673E-03 ; 0.470; 3.600
PNa_L      	Q0         	 1 1.380E-01 1.487E-03 ; 0.470; 3.200
POL        	PNa_L      	 1 1.388E-01 1.497E-03 ; 0.470; 3.220
PNa_L      	C3         	 1 1.164E-01 1.255E-03 ; 0.470; 2.700
PNa_L      	Qd         	 1 1.923E-01 2.073E-03 ; 0.470; 4.460
PNa        	C1         	 1 1.164E-01 1.255E-03 ; 0.470; 2.700
D          	PNa        	 1 0.000E+00 0.000E+00 ; no LJ interaction
PNa        	Qa         	 1 1.552E-01 1.673E-03 ; 0.470; 3.600
PNa        	Q0         	 1 1.380E-01 1.487E-03 ; 0.470; 3.200
POL        	PNa        	 1 1.388E-01 1.497E-03 ; 0.470; 3.220
PNa        	C3         	 1 1.164E-01 1.255E-03 ; 0.470; 2.700
PNa        	Qd         	 1 1.923E-01 2.073E-03 ; 0.470; 4.460
C1         	Q0_L       	 1 9.917E-02 1.069E-03 ; 0.470; 2.300
D          	Q0_L       	 1 0.000E+00 0.000E+00 ; no LJ interaction
Qa         	Q0_L       	 1 9.917E-02 1.069E-03 ; 0.470; 2.300
Q0_L       	Q0         	 1 1.509E-01 1.627E-03 ; 0.470; 3.500
POL        	Q0_L       	 1 1.940E-01 2.091E-03 ; 0.470; 4.500
C3         	Q0_L       	 1 1.164E-01 1.255E-03 ; 0.470; 2.700
Qd         	Q0_L       	 1 9.917E-02 1.069E-03 ; 0.470; 2.300
PP5        	C1         	 1 8.623E-02 9.295E-04 ; 0.470; 2.000
D          	PP5        	 1 0.000E+00 0.000E+00 ; no LJ interaction
PP5        	Qa         	 1 2.294E-01 2.473E-03 ; 0.470; 5.320
PP5        	Q0         	 1 2.294E-01 2.473E-03 ; 0.470; 5.320
POL        	PP5        	 1 2.044E-01 2.203E-03 ; 0.470; 4.740
PP5        	C3         	 1 1.164E-01 1.255E-03 ; 0.470; 2.700
PP5        	Qd         	 1 2.294E-01 2.473E-03 ; 0.470; 5.320
C1_P       	C1         	 1 1.509E-01 1.627E-03 ; 0.470; 3.500
D          	C1_P       	 1 0.000E+00 0.000E+00 ; no LJ interaction
C1_P       	Qa         	 1 9.917E-02 1.069E-03 ; 0.470; 2.300
C1_P       	Q0         	 1 9.917E-02 1.069E-03 ; 0.470; 2.300
POL        	C1_P       	 1 4.312E-02 4.648E-04 ; 0.470; 1.000
C3         	C1_P       	 1 1.509E-01 1.627E-03 ; 0.470; 3.500
C1_P       	Qd         	 1 9.917E-02 1.069E-03 ; 0.470; 2.300
C1         	Qd_P       	 1 9.917E-02 1.069E-03 ; 0.470; 2.300
D          	Qd_P       	 1 0.000E+00 0.000E+00 ; no LJ interaction
Qd_P       	Qa         	 1 1.725E-01 1.859E-03 ; 0.470; 4.000
Qd_P       	Q0         	 1 9.917E-02 1.069E-03 ; 0.470; 2.300
POL        	Qd_P       	 1 2.156E-01 2.324E-03 ; 0.470; 5.000
C3         	Qd_P       	 1 1.164E-01 1.255E-03 ; 0.470; 2.700
Qd_P       	Qd         	 1 1.509E-01 1.627E-03 ; 0.470; 3.500
C1         	QaG        	 1 9.917E-02 1.069E-03 ; 0.470; 2.300
D          	QaG        	 1 0.000E+00 0.000E+00 ; no LJ interaction
QaG        	Qa         	 1 1.509E-01 1.627E-03 ; 0.470; 3.500
QaG        	Q0         	 1 9.917E-02 1.069E-03 ; 0.470; 2.300
POL        	QaG        	 1 2.156E-01 2.324E-03 ; 0.470; 5.000
C3         	QaG        	 1 1.164E-01 1.255E-03 ; 0.470; 2.700
Qd         	QaG        	 1 1.725E-01 1.859E-03 ; 0.470; 4.000
C3_P       	C1         	 1 1.509E-01 1.627E-03 ; 0.470; 3.500
D          	C3_P       	 1 0.000E+00 0.000E+00 ; no LJ interaction
C3_P       	Qa         	 1 1.164E-01 1.255E-03 ; 0.470; 2.700
C3_P       	Q0         	 1 1.164E-01 1.255E-03 ; 0.470; 2.700
POL        	C3_P       	 1 1.108E-01 1.194E-03 ; 0.470; 2.570
C3_P       	C3         	 1 1.509E-01 1.627E-03 ; 0.470; 3.500
C3_P       	Qd         	 1 1.164E-01 1.255E-03 ; 0.470; 2.700
POL        	D          	 1 0.000E+00 0.000E+00 ; no LJ interaction
D1         	D1         	 1 0.000E+00 4.539E-10 ; sigma infinity
D1         	C3         	 1 0.000E+00 4.539E-10 ; sigma infinity
D1         	C1         	 1 0.000E+00 4.539E-10 ; sigma infinity
D1         	Qd         	 1 0.000E+00 4.539E-10 ; sigma infinity
D1         	Qa         	 1 0.000E+00 4.539E-10 ; sigma infinity
D1         	Q0         	 1 0.000E+00 4.539E-10 ; sigma infinity
D1         	Qa_L       	 1 0.000E+00 4.539E-10 ; sigma infinity
D1         	Qdi        	 1 0.000E+00 4.539E-10 ; sigma infinity
D1         	PP5_L      	 1 0.000E+00 4.539E-10 ; sigma infinity
D1         	PP5_P_RL   	 1 0.000E+00 4.539E-10 ; sigma infinity
D1         	C3_P_RL    	 1 0.000E+00 4.539E-10 ; sigma infinity
D1         	PNa_L      	 1 0.000E+00 4.539E-10 ; sigma infinity
D1         	PNa        	 1 0.000E+00 4.539E-10 ; sigma infinity
D1         	Q0_L       	 1 0.000E+00 4.539E-10 ; sigma infinity
D1         	PP5        	 1 0.000E+00 4.539E-10 ; sigma infinity
D1         	C1_P       	 1 0.000E+00 4.539E-10 ; sigma infinity
D1         	Qd_P       	 1 0.000E+00 4.539E-10 ; sigma infinity
D1         	QaG        	 1 0.000E+00 4.539E-10 ; sigma infinity
D1         	C3_P       	 1 0.000E+00 4.539E-10 ; sigma infinity
POL        	D1         	 1 0.000E+00 4.539E-10 ; sigma infinity
D1         	D          	 1 0.000E+00 4.539E-10 ; sigma infinity
D1         	D1         	 1 0.000E+00 4.539E-10 ; sigma infinity
D2         	D2         	 1 0.000E+00 4.539E-10 ; sigma infinity
D2         	C3         	 1 0.000E+00 4.539E-10 ; sigma infinity
D2         	C1         	 1 0.000E+00 4.539E-10 ; sigma infinity
D2         	Qd         	 1 0.000E+00 4.539E-07 ; sigma infinity
D2         	Qa         	 1 0.000E+00 4.539E-07 ; sigma infinity
D2         	Q0         	 1 0.000E+00 4.539E-07 ; sigma infinity
D2         	Qa_L       	 1 0.000E+00 4.539E-07 ; sigma infinity
D2         	Qdi        	 1 0.000E+00 4.539E-05 ; sigma infinity
D2         	PP5_L      	 1 0.000E+00 4.539E-10 ; sigma infinity
D2         	PP5_P_RL   	 1 0.000E+00 4.539E-10 ; sigma infinity
D2         	C3_P_RL    	 1 0.000E+00 4.539E-10 ; sigma infinity
D2         	PNa_L      	 1 0.000E+00 4.539E-10 ; sigma infinity
D2         	PNa        	 1 0.000E+00 4.539E-10 ; sigma infinity
D2         	Q0_L       	 1 0.000E+00 4.539E-07 ; sigma infinity
D2         	PP5        	 1 0.000E+00 4.539E-10 ; sigma infinity
D2         	C1_P       	 1 0.000E+00 4.539E-10 ; sigma infinity
D2         	Qd_P       	 1 0.000E+00 4.539E-07 ; sigma infinity
D2         	QaG        	 1 0.000E+00 4.539E-07 ; sigma infinity
D2         	C3_P       	 1 0.000E+00 4.539E-10 ; sigma infinity
POL        	D2         	 1 0.000E+00 4.539E-10 ; sigma infinity
D1         	D2         	 1 0.000E+00 4.539E-07 ; sigma infinity
D2         	D          	 1 0.000E+00 4.539E-10 ; sigma infinity
D2         	D2         	 1 0.000E+00 4.539E-10 ; sigma infinity
